# vtk DataFile Version 2.0 
generated by Lattice Boltzmann Method time =   1.84752086e+00
ASCII 
DATASET UNSTRUCTURED_GRID

POINTS   1000 FLOAT 
  0.00000000e+00   0.00000000e+00   0.00000000e+00 
  0.00000000e+00   0.00000000e+00   1.00000000e-01 
  0.00000000e+00   0.00000000e+00   2.00000000e-01 
  0.00000000e+00   0.00000000e+00   3.00000000e-01 
  0.00000000e+00   0.00000000e+00   4.00000000e-01 
  0.00000000e+00   0.00000000e+00   5.00000000e-01 
  0.00000000e+00   0.00000000e+00   6.00000000e-01 
  0.00000000e+00   0.00000000e+00   7.00000000e-01 
  0.00000000e+00   0.00000000e+00   8.00000000e-01 
  0.00000000e+00   0.00000000e+00   9.00000000e-01 
  0.00000000e+00   1.00000000e-01   0.00000000e+00 
  0.00000000e+00   1.00000000e-01   1.00000000e-01 
  0.00000000e+00   1.00000000e-01   2.00000000e-01 
  0.00000000e+00   1.00000000e-01   3.00000000e-01 
  0.00000000e+00   1.00000000e-01   4.00000000e-01 
  0.00000000e+00   1.00000000e-01   5.00000000e-01 
  0.00000000e+00   1.00000000e-01   6.00000000e-01 
  0.00000000e+00   1.00000000e-01   7.00000000e-01 
  0.00000000e+00   1.00000000e-01   8.00000000e-01 
  0.00000000e+00   1.00000000e-01   9.00000000e-01 
  0.00000000e+00   2.00000000e-01   0.00000000e+00 
  0.00000000e+00   2.00000000e-01   1.00000000e-01 
  0.00000000e+00   2.00000000e-01   2.00000000e-01 
  0.00000000e+00   2.00000000e-01   3.00000000e-01 
  0.00000000e+00   2.00000000e-01   4.00000000e-01 
  0.00000000e+00   2.00000000e-01   5.00000000e-01 
  0.00000000e+00   2.00000000e-01   6.00000000e-01 
  0.00000000e+00   2.00000000e-01   7.00000000e-01 
  0.00000000e+00   2.00000000e-01   8.00000000e-01 
  0.00000000e+00   2.00000000e-01   9.00000000e-01 
  0.00000000e+00   3.00000000e-01   0.00000000e+00 
  0.00000000e+00   3.00000000e-01   1.00000000e-01 
  0.00000000e+00   3.00000000e-01   2.00000000e-01 
  0.00000000e+00   3.00000000e-01   3.00000000e-01 
  0.00000000e+00   3.00000000e-01   4.00000000e-01 
  0.00000000e+00   3.00000000e-01   5.00000000e-01 
  0.00000000e+00   3.00000000e-01   6.00000000e-01 
  0.00000000e+00   3.00000000e-01   7.00000000e-01 
  0.00000000e+00   3.00000000e-01   8.00000000e-01 
  0.00000000e+00   3.00000000e-01   9.00000000e-01 
  0.00000000e+00   4.00000000e-01   0.00000000e+00 
  0.00000000e+00   4.00000000e-01   1.00000000e-01 
  0.00000000e+00   4.00000000e-01   2.00000000e-01 
  0.00000000e+00   4.00000000e-01   3.00000000e-01 
  0.00000000e+00   4.00000000e-01   4.00000000e-01 
  0.00000000e+00   4.00000000e-01   5.00000000e-01 
  0.00000000e+00   4.00000000e-01   6.00000000e-01 
  0.00000000e+00   4.00000000e-01   7.00000000e-01 
  0.00000000e+00   4.00000000e-01   8.00000000e-01 
  0.00000000e+00   4.00000000e-01   9.00000000e-01 
  0.00000000e+00   5.00000000e-01   0.00000000e+00 
  0.00000000e+00   5.00000000e-01   1.00000000e-01 
  0.00000000e+00   5.00000000e-01   2.00000000e-01 
  0.00000000e+00   5.00000000e-01   3.00000000e-01 
  0.00000000e+00   5.00000000e-01   4.00000000e-01 
  0.00000000e+00   5.00000000e-01   5.00000000e-01 
  0.00000000e+00   5.00000000e-01   6.00000000e-01 
  0.00000000e+00   5.00000000e-01   7.00000000e-01 
  0.00000000e+00   5.00000000e-01   8.00000000e-01 
  0.00000000e+00   5.00000000e-01   9.00000000e-01 
  0.00000000e+00   6.00000000e-01   0.00000000e+00 
  0.00000000e+00   6.00000000e-01   1.00000000e-01 
  0.00000000e+00   6.00000000e-01   2.00000000e-01 
  0.00000000e+00   6.00000000e-01   3.00000000e-01 
  0.00000000e+00   6.00000000e-01   4.00000000e-01 
  0.00000000e+00   6.00000000e-01   5.00000000e-01 
  0.00000000e+00   6.00000000e-01   6.00000000e-01 
  0.00000000e+00   6.00000000e-01   7.00000000e-01 
  0.00000000e+00   6.00000000e-01   8.00000000e-01 
  0.00000000e+00   6.00000000e-01   9.00000000e-01 
  0.00000000e+00   7.00000000e-01   0.00000000e+00 
  0.00000000e+00   7.00000000e-01   1.00000000e-01 
  0.00000000e+00   7.00000000e-01   2.00000000e-01 
  0.00000000e+00   7.00000000e-01   3.00000000e-01 
  0.00000000e+00   7.00000000e-01   4.00000000e-01 
  0.00000000e+00   7.00000000e-01   5.00000000e-01 
  0.00000000e+00   7.00000000e-01   6.00000000e-01 
  0.00000000e+00   7.00000000e-01   7.00000000e-01 
  0.00000000e+00   7.00000000e-01   8.00000000e-01 
  0.00000000e+00   7.00000000e-01   9.00000000e-01 
  0.00000000e+00   8.00000000e-01   0.00000000e+00 
  0.00000000e+00   8.00000000e-01   1.00000000e-01 
  0.00000000e+00   8.00000000e-01   2.00000000e-01 
  0.00000000e+00   8.00000000e-01   3.00000000e-01 
  0.00000000e+00   8.00000000e-01   4.00000000e-01 
  0.00000000e+00   8.00000000e-01   5.00000000e-01 
  0.00000000e+00   8.00000000e-01   6.00000000e-01 
  0.00000000e+00   8.00000000e-01   7.00000000e-01 
  0.00000000e+00   8.00000000e-01   8.00000000e-01 
  0.00000000e+00   8.00000000e-01   9.00000000e-01 
  0.00000000e+00   9.00000000e-01   0.00000000e+00 
  0.00000000e+00   9.00000000e-01   1.00000000e-01 
  0.00000000e+00   9.00000000e-01   2.00000000e-01 
  0.00000000e+00   9.00000000e-01   3.00000000e-01 
  0.00000000e+00   9.00000000e-01   4.00000000e-01 
  0.00000000e+00   9.00000000e-01   5.00000000e-01 
  0.00000000e+00   9.00000000e-01   6.00000000e-01 
  0.00000000e+00   9.00000000e-01   7.00000000e-01 
  0.00000000e+00   9.00000000e-01   8.00000000e-01 
  0.00000000e+00   9.00000000e-01   9.00000000e-01 
  1.00000000e-01   0.00000000e+00   0.00000000e+00 
  1.00000000e-01   0.00000000e+00   1.00000000e-01 
  1.00000000e-01   0.00000000e+00   2.00000000e-01 
  1.00000000e-01   0.00000000e+00   3.00000000e-01 
  1.00000000e-01   0.00000000e+00   4.00000000e-01 
  1.00000000e-01   0.00000000e+00   5.00000000e-01 
  1.00000000e-01   0.00000000e+00   6.00000000e-01 
  1.00000000e-01   0.00000000e+00   7.00000000e-01 
  1.00000000e-01   0.00000000e+00   8.00000000e-01 
  1.00000000e-01   0.00000000e+00   9.00000000e-01 
  1.00000000e-01   1.00000000e-01   0.00000000e+00 
  1.00000000e-01   1.00000000e-01   1.00000000e-01 
  1.00000000e-01   1.00000000e-01   2.00000000e-01 
  1.00000000e-01   1.00000000e-01   3.00000000e-01 
  1.00000000e-01   1.00000000e-01   4.00000000e-01 
  1.00000000e-01   1.00000000e-01   5.00000000e-01 
  1.00000000e-01   1.00000000e-01   6.00000000e-01 
  1.00000000e-01   1.00000000e-01   7.00000000e-01 
  1.00000000e-01   1.00000000e-01   8.00000000e-01 
  1.00000000e-01   1.00000000e-01   9.00000000e-01 
  1.00000000e-01   2.00000000e-01   0.00000000e+00 
  1.00000000e-01   2.00000000e-01   1.00000000e-01 
  1.00000000e-01   2.00000000e-01   2.00000000e-01 
  1.00000000e-01   2.00000000e-01   3.00000000e-01 
  1.00000000e-01   2.00000000e-01   4.00000000e-01 
  1.00000000e-01   2.00000000e-01   5.00000000e-01 
  1.00000000e-01   2.00000000e-01   6.00000000e-01 
  1.00000000e-01   2.00000000e-01   7.00000000e-01 
  1.00000000e-01   2.00000000e-01   8.00000000e-01 
  1.00000000e-01   2.00000000e-01   9.00000000e-01 
  1.00000000e-01   3.00000000e-01   0.00000000e+00 
  1.00000000e-01   3.00000000e-01   1.00000000e-01 
  1.00000000e-01   3.00000000e-01   2.00000000e-01 
  1.00000000e-01   3.00000000e-01   3.00000000e-01 
  1.00000000e-01   3.00000000e-01   4.00000000e-01 
  1.00000000e-01   3.00000000e-01   5.00000000e-01 
  1.00000000e-01   3.00000000e-01   6.00000000e-01 
  1.00000000e-01   3.00000000e-01   7.00000000e-01 
  1.00000000e-01   3.00000000e-01   8.00000000e-01 
  1.00000000e-01   3.00000000e-01   9.00000000e-01 
  1.00000000e-01   4.00000000e-01   0.00000000e+00 
  1.00000000e-01   4.00000000e-01   1.00000000e-01 
  1.00000000e-01   4.00000000e-01   2.00000000e-01 
  1.00000000e-01   4.00000000e-01   3.00000000e-01 
  1.00000000e-01   4.00000000e-01   4.00000000e-01 
  1.00000000e-01   4.00000000e-01   5.00000000e-01 
  1.00000000e-01   4.00000000e-01   6.00000000e-01 
  1.00000000e-01   4.00000000e-01   7.00000000e-01 
  1.00000000e-01   4.00000000e-01   8.00000000e-01 
  1.00000000e-01   4.00000000e-01   9.00000000e-01 
  1.00000000e-01   5.00000000e-01   0.00000000e+00 
  1.00000000e-01   5.00000000e-01   1.00000000e-01 
  1.00000000e-01   5.00000000e-01   2.00000000e-01 
  1.00000000e-01   5.00000000e-01   3.00000000e-01 
  1.00000000e-01   5.00000000e-01   4.00000000e-01 
  1.00000000e-01   5.00000000e-01   5.00000000e-01 
  1.00000000e-01   5.00000000e-01   6.00000000e-01 
  1.00000000e-01   5.00000000e-01   7.00000000e-01 
  1.00000000e-01   5.00000000e-01   8.00000000e-01 
  1.00000000e-01   5.00000000e-01   9.00000000e-01 
  1.00000000e-01   6.00000000e-01   0.00000000e+00 
  1.00000000e-01   6.00000000e-01   1.00000000e-01 
  1.00000000e-01   6.00000000e-01   2.00000000e-01 
  1.00000000e-01   6.00000000e-01   3.00000000e-01 
  1.00000000e-01   6.00000000e-01   4.00000000e-01 
  1.00000000e-01   6.00000000e-01   5.00000000e-01 
  1.00000000e-01   6.00000000e-01   6.00000000e-01 
  1.00000000e-01   6.00000000e-01   7.00000000e-01 
  1.00000000e-01   6.00000000e-01   8.00000000e-01 
  1.00000000e-01   6.00000000e-01   9.00000000e-01 
  1.00000000e-01   7.00000000e-01   0.00000000e+00 
  1.00000000e-01   7.00000000e-01   1.00000000e-01 
  1.00000000e-01   7.00000000e-01   2.00000000e-01 
  1.00000000e-01   7.00000000e-01   3.00000000e-01 
  1.00000000e-01   7.00000000e-01   4.00000000e-01 
  1.00000000e-01   7.00000000e-01   5.00000000e-01 
  1.00000000e-01   7.00000000e-01   6.00000000e-01 
  1.00000000e-01   7.00000000e-01   7.00000000e-01 
  1.00000000e-01   7.00000000e-01   8.00000000e-01 
  1.00000000e-01   7.00000000e-01   9.00000000e-01 
  1.00000000e-01   8.00000000e-01   0.00000000e+00 
  1.00000000e-01   8.00000000e-01   1.00000000e-01 
  1.00000000e-01   8.00000000e-01   2.00000000e-01 
  1.00000000e-01   8.00000000e-01   3.00000000e-01 
  1.00000000e-01   8.00000000e-01   4.00000000e-01 
  1.00000000e-01   8.00000000e-01   5.00000000e-01 
  1.00000000e-01   8.00000000e-01   6.00000000e-01 
  1.00000000e-01   8.00000000e-01   7.00000000e-01 
  1.00000000e-01   8.00000000e-01   8.00000000e-01 
[...]
POINT_DATA   1000
FIELD solution 1
u 3   1000 DOUBLE
   -2.20525816e-04     1.14817223e-04     1.10486794e-04 
   -2.05368866e-04     1.13875879e-04     7.76913325e-05 
   -2.11006848e-04     1.09978121e-04     6.82686668e-05 
   -2.09279012e-04     1.06261153e-04     2.79299883e-05 
   -2.08455223e-04     1.04437506e-04     2.04225430e-05 
   -2.08456815e-04     1.04436857e-04    -2.04444979e-05 
   -2.09277979e-04     1.06261720e-04    -2.79494766e-05 
   -2.11009972e-04     1.09976704e-04    -6.82946795e-05 
   -2.05363753e-04     1.13878379e-04    -7.77158218e-05 
   -2.20463146e-04     1.14825624e-04    -1.10524644e-04 
   -2.08844196e-04     9.38694427e-05     1.09286554e-04 
   -2.03886837e-04     8.65810018e-05     8.62378766e-05 
   -2.06152843e-04     8.63741478e-05     6.22378597e-05 
   -2.05451410e-04     7.82125809e-05     3.43549415e-05 
   -2.04038941e-04     7.89272113e-05     1.60001910e-05 
   -2.04039261e-04     7.89339321e-05    -1.60127539e-05 
   -2.05452890e-04     7.82057467e-05    -3.43644380e-05 
   -2.06156072e-04     8.63813801e-05    -6.22536806e-05 
   -2.03883339e-04     8.65915803e-05    -8.62653241e-05 
   -2.08854516e-04     9.38904503e-05    -1.09296160e-04 
   -2.07918448e-04     5.54115027e-05     1.08086919e-04 
   -2.05400704e-04     6.03561711e-05     7.99175943e-05 
   -2.09806247e-04     5.88342915e-05     6.09410381e-05 
   -2.10262989e-04     5.47554136e-05     3.32331120e-05 
   -2.09349559e-04     5.39687549e-05     1.53973079e-05 
   -2.09349970e-04     5.39694531e-05    -1.54114188e-05 
   -2.10264327e-04     5.47543986e-05    -3.32441569e-05 
   -2.09804597e-04     5.88429915e-05    -6.09664992e-05 
   -2.05403091e-04     6.03550064e-05    -7.99293871e-05 
   -2.07922995e-04     5.54070444e-05    -1.08098965e-04 
   -2.07828990e-04     4.04877123e-05     1.04547206e-04 
   -2.04984778e-04     3.75699114e-05     7.98666731e-05 
   -2.10125161e-04     3.81965449e-05     5.47962955e-05 
   -2.12875751e-04     3.58056433e-05     3.53855727e-05 
   -2.12195678e-04     3.28965630e-05     1.32310491e-05 
   -2.12195953e-04     3.29017658e-05    -1.32439331e-05 
   -2.12874709e-04     3.58073236e-05    -3.54045990e-05 
   -2.10126816e-04     3.81988478e-05    -5.48095030e-05 
   -2.04986847e-04     3.75673771e-05    -7.98828525e-05 
   -2.07833315e-04     4.04988417e-05    -1.04559816e-04 
   -2.05929663e-04     8.33025032e-06     1.03076343e-04 
   -2.03355014e-04     1.28422105e-05     7.69011301e-05 
   -2.09022264e-04     1.10396665e-05     5.40636398e-05 
   -2.12036282e-04     1.22238433e-05     3.19819892e-05 
   -2.12411506e-04     1.09391275e-05     1.23731517e-05 
   -2.12411020e-04     1.09486450e-05    -1.23953497e-05 
   -2.12036887e-04     1.22261208e-05    -3.19964064e-05 
   -2.09023231e-04     1.10370592e-05    -5.40773639e-05 
   -2.03356528e-04     1.28430803e-05    -7.69154924e-05 
   -2.05932871e-04     8.32401108e-06    -1.03088955e-04 
   -2.05929663e-04    -8.33025032e-06     1.03076343e-04 
   -2.03355014e-04    -1.28422105e-05     7.69011301e-05 
   -2.09022264e-04    -1.10396665e-05     5.40636398e-05 
   -2.12036282e-04    -1.22238433e-05     3.19819892e-05 
   -2.12411506e-04    -1.09391275e-05     1.23731517e-05 
   -2.12411020e-04    -1.09486450e-05    -1.23953497e-05 
   -2.12036887e-04    -1.22261208e-05    -3.19964064e-05 
   -2.09023231e-04    -1.10370592e-05    -5.40773639e-05 
   -2.03356528e-04    -1.28430803e-05    -7.69154924e-05 
   -2.05932871e-04    -8.32401108e-06    -1.03088955e-04 
   -2.07828990e-04    -4.04877123e-05     1.04547206e-04 
   -2.04984778e-04    -3.75699114e-05     7.98666731e-05 
   -2.10125161e-04    -3.81965449e-05     5.47962955e-05 
   -2.12875751e-04    -3.58056433e-05     3.53855727e-05 
   -2.12195678e-04    -3.28965630e-05     1.32310491e-05 
   -2.12195953e-04    -3.29017658e-05    -1.32439331e-05 
   -2.12874709e-04    -3.58073236e-05    -3.54045990e-05 
   -2.10126816e-04    -3.81988478e-05    -5.48095030e-05 
   -2.04986847e-04    -3.75673771e-05    -7.98828525e-05 
   -2.07833315e-04    -4.04988417e-05    -1.04559816e-04 
   -2.07918448e-04    -5.54115027e-05     1.08086919e-04 
   -2.05400704e-04    -6.03561711e-05     7.99175943e-05 
   -2.09806247e-04    -5.88342915e-05     6.09410381e-05 
   -2.10262989e-04    -5.47554136e-05     3.32331120e-05 
   -2.09349559e-04    -5.39687549e-05     1.53973079e-05 
   -2.09349970e-04    -5.39694531e-05    -1.54114188e-05 
   -2.10264327e-04    -5.47543986e-05    -3.32441569e-05 
   -2.09804597e-04    -5.88429915e-05    -6.09664992e-05 
   -2.05403091e-04    -6.03550064e-05    -7.99293871e-05 
   -2.07922995e-04    -5.54070444e-05    -1.08098965e-04 
   -2.08844196e-04    -9.38694427e-05     1.09286554e-04 
   -2.03886837e-04    -8.65810018e-05     8.62378766e-05 
   -2.06152843e-04    -8.63741478e-05     6.22378597e-05 
   -2.05451410e-04    -7.82125809e-05     3.43549415e-05 
   -2.04038941e-04    -7.89272113e-05     1.60001910e-05 
   -2.04039261e-04    -7.89339321e-05    -1.60127539e-05 
   -2.05452890e-04    -7.82057467e-05    -3.43644380e-05 
   -2.06156072e-04    -8.63813801e-05    -6.22536806e-05 
   -2.03883339e-04    -8.65915803e-05    -8.62653241e-05 
   -2.08854516e-04    -9.38904503e-05    -1.09296160e-04 
   -2.20525816e-04    -1.14817223e-04     1.10486794e-04 
   -2.05368866e-04    -1.13875879e-04     7.76913325e-05 
   -2.11006848e-04    -1.09978121e-04     6.82686668e-05 
   -2.09279012e-04    -1.06261153e-04     2.79299883e-05 
   -2.08455223e-04    -1.04437506e-04     2.04225430e-05 
   -2.08456815e-04    -1.04436857e-04    -2.04444979e-05 
   -2.09277979e-04    -1.06261720e-04    -2.79494766e-05 
   -2.11009972e-04    -1.09976704e-04    -6.82946795e-05 
   -2.05363753e-04    -1.13878379e-04    -7.77158218e-05 
   -2.20463146e-04    -1.14825624e-04    -1.10524644e-04 
   -1.51337560e-04     1.09383234e-04     1.05408444e-04 
   -1.69834809e-04     1.10516608e-04     9.33816902e-05 
   -1.60567063e-04     1.07286979e-04     6.40502562e-05 
   -1.68762744e-04     1.03931308e-04     3.53660723e-05 
   -1.63110971e-04     1.02809109e-04     1.44390926e-05 
   -1.63100538e-04     1.02808839e-04    -1.44466290e-05 
   -1.68776353e-04     1.03932301e-04    -3.53729245e-05 
   -1.60558306e-04     1.07286222e-04    -6.40607558e-05 
   -1.69852341e-04     1.10516484e-04    -9.33925464e-05 
   -1.51317121e-04     1.09368812e-04    -1.05405365e-04 
   -1.53056460e-04     1.00658886e-04     1.07666414e-04 
   -1.63852728e-04     8.98042676e-05     1.01208082e-04 
   -1.61797379e-04     9.33327153e-05     6.16468350e-05 
   -1.69194197e-04     8.41334186e-05     4.05430444e-05 
   -1.65087278e-04     8.59438399e-05     1.13466322e-05 
   -1.65077153e-04     8.59556950e-05    -1.13498079e-05 
   -1.69206870e-04     8.41213691e-05    -4.05513653e-05 
   -1.61786662e-04     9.33451212e-05    -6.16475408e-05 
   -1.63871114e-04     8.97908312e-05    -1.01230247e-04 
   -1.53047503e-04     1.00677687e-04    -1.07668956e-04 
   -1.66379191e-04     5.72570538e-05     1.05963802e-04 
   -1.67069152e-04     6.62204437e-05     8.59119683e-05 
   -1.70213371e-04     6.18146492e-05     6.48105717e-05 
   -1.72009809e-04     6.15688501e-05     3.68324639e-05 
   -1.70561288e-04     5.96875043e-05     1.45646350e-05 
   -1.70555692e-04     5.96850055e-05    -1.45708138e-05 
   -1.72016235e-04     6.15707890e-05    -3.68389297e-05 
   -1.70207718e-04     6.18077620e-05    -6.48158018e-05 
   -1.67076591e-04     6.62225201e-05    -8.59175845e-05 
   -1.66384829e-04     5.72459351e-05    -1.05970341e-04 
   -1.62594718e-04     4.19948405e-05     1.02751781e-04 
   -1.64885016e-04     3.79939922e-05     8.83317438e-05 
   -1.71314598e-04     4.06570959e-05     6.05078503e-05 
   -1.74631167e-04     3.75389859e-05     3.84458550e-05 
   -1.73977539e-04     3.49456906e-05     1.22260616e-05 
   -1.73973074e-04     3.49516477e-05    -1.22313654e-05 
   -1.74640443e-04     3.75360873e-05    -3.84552409e-05 
   -1.71312016e-04     4.06638291e-05    -6.05124653e-05 
   -1.64888415e-04     3.79909633e-05    -8.83471685e-05 
   -1.62593361e-04     4.20069740e-05    -1.02760023e-04 
   -1.63545143e-04     7.79166695e-06     1.01830955e-04 
   -1.64908852e-04     1.35581308e-05     8.36538592e-05 
   -1.71332893e-04     1.09484788e-05     6.06169055e-05 
   -1.73073815e-04     1.28193895e-05     3.45094196e-05 
   -1.73966764e-04     1.11214484e-05     1.22794064e-05 
   -1.73961937e-04     1.11199413e-05    -1.22871278e-05 
   -1.73076703e-04     1.28219416e-05    -3.45170844e-05 
   -1.71331579e-04     1.09422737e-05    -6.06237000e-05 
   -1.64913773e-04     1.35591633e-05    -8.36634108e-05 
   -1.63547144e-04     7.78209882e-06    -1.01839034e-04 
   -1.63545143e-04    -7.79166695e-06     1.01830955e-04 
   -1.64908852e-04    -1.35581308e-05     8.36538592e-05 
   -1.71332893e-04    -1.09484788e-05     6.06169055e-05 
   -1.73073815e-04    -1.28193895e-05     3.45094196e-05 
   -1.73966764e-04    -1.11214484e-05     1.22794064e-05 
   -1.73961937e-04    -1.11199413e-05    -1.22871278e-05 
   -1.73076703e-04    -1.28219416e-05    -3.45170844e-05 
   -1.71331579e-04    -1.09422737e-05    -6.06237000e-05 
   -1.64913773e-04    -1.35591633e-05    -8.36634108e-05 
   -1.63547144e-04    -7.78209882e-06    -1.01839034e-04 
   -1.62594718e-04    -4.19948405e-05     1.02751781e-04 
   -1.64885016e-04    -3.79939922e-05     8.83317438e-05 
   -1.71314598e-04    -4.06570959e-05     6.05078503e-05 
   -1.74631167e-04    -3.75389859e-05     3.84458550e-05 
   -1.73977539e-04    -3.49456906e-05     1.22260616e-05 
   -1.73973074e-04    -3.49516477e-05    -1.22313654e-05 
   -1.74640443e-04    -3.75360873e-05    -3.84552409e-05 
   -1.71312016e-04    -4.06638291e-05    -6.05124653e-05 
   -1.64888415e-04    -3.79909633e-05    -8.83471685e-05 
   -1.62593361e-04    -4.20069740e-05    -1.02760023e-04 
   -1.66379191e-04    -5.72570538e-05     1.05963802e-04 
   -1.67069152e-04    -6.62204437e-05     8.59119683e-05 
   -1.70213371e-04    -6.18146492e-05     6.48105717e-05 
   -1.72009809e-04    -6.15688501e-05     3.68324639e-05 
   -1.70561288e-04    -5.96875043e-05     1.45646350e-05 
   -1.70555692e-04    -5.96850055e-05    -1.45708138e-05 
   -1.72016235e-04    -6.15707890e-05    -3.68389297e-05 
   -1.70207718e-04    -6.18077620e-05    -6.48158018e-05 
   -1.67076591e-04    -6.62225201e-05    -8.59175845e-05 
   -1.66384829e-04    -5.72459351e-05    -1.05970341e-04 
   -1.53056460e-04    -1.00658886e-04     1.07666414e-04 
   -1.63852728e-04    -8.98042676e-05     1.01208082e-04 
   -1.61797379e-04    -9.33327153e-05     6.16468350e-05 
   -1.69194197e-04    -8.41334186e-05     4.05430444e-05 
   -1.65087278e-04    -8.59438399e-05     1.13466322e-05 
   -1.65077153e-04    -8.59556950e-05    -1.13498079e-05 
   -1.69206870e-04    -8.41213691e-05    -4.05513653e-05 
   -1.61786662e-04    -9.33451212e-05    -6.16475408e-05 
   -1.63871114e-04    -8.97908312e-05    -1.01230247e-04 
   -1.53047503e-04    -1.00677687e-04    -1.07668956e-04 
   -1.51337560e-04    -1.09383234e-04     1.05408444e-04 
   -1.69834809e-04    -1.10516608e-04     9.33816902e-05 
   -1.60567063e-04    -1.07286979e-04     6.40502562e-05 
   -1.68762744e-04    -1.03931308e-04     3.53660723e-05 
   -1.63110971e-04    -1.02809109e-04     1.44390926e-05 
   -1.63100538e-04    -1.02808839e-04    -1.44466290e-05 
   -1.68776353e-04    -1.03932301e-04    -3.53729245e-05 
   -1.60558306e-04    -1.07286222e-04    -6.40607558e-05 
   -1.69852341e-04    -1.10516484e-04    -9.33925464e-05 
   -1.51317121e-04    -1.09368812e-04    -1.05405365e-04 
   -1.24746645e-04     1.17434391e-04     1.12109653e-04 
   -1.14630727e-04     1.09296762e-04     8.92198983e-05 
   -1.23084825e-04     1.09039072e-04     6.77400128e-05 
   -1.22760675e-04     1.04935785e-04     3.43500321e-05 
   -1.23247113e-04     1.03646298e-04     1.54165539e-05 
   -1.23247217e-04     1.03645515e-04    -1.54249419e-05 
   -1.22760218e-04     1.04936203e-04    -3.43557935e-05 
   -1.23086761e-04     1.09037361e-04    -6.77519186e-05 
   -1.14627742e-04     1.09298073e-04    -8.92251000e-05 
   -1.24741248e-04     1.17433317e-04    -1.12118492e-04 
   -1.22875893e-04     8.91022493e-05     1.06952962e-04 
   -1.14143870e-04     9.36377971e-05     9.07468556e-05 
   -1.21838360e-04     9.00422401e-05     6.80852734e-05 
   -1.21723240e-04     8.70062375e-05     3.76309578e-05 
   -1.23053072e-04     8.63928398e-05     1.50394936e-05 
   -1.23054483e-04     8.63990173e-05    -1.50434234e-05 
   -1.21721109e-04     8.69991162e-05    -3.76339841e-05 
   -1.21844646e-04     9.00469706e-05    -6.80891942e-05 
   -1.14145904e-04     9.36323872e-05    -9.07473349e-05 
   -1.22887077e-04     8.91004977e-05    -1.06957367e-04 
   -1.20887341e-04     6.43140575e-05     1.08081716e-04 
   -1.17407791e-04     6.80180655e-05     8.81775364e-05 
   -1.23755467e-04     6.62913673e-05     6.84569138e-05 
   -1.25789529e-04     6.35301976e-05     3.79665038e-05 
   -1.27154485e-04     6.25070916e-05     1.46489753e-05 
   -1.27154139e-04     6.25059224e-05    -1.46558221e-05 
   -1.25788604e-04     6.35317170e-05    -3.79710993e-05 
   -1.23764167e-04     6.62871563e-05    -6.84614641e-05 
   -1.17407737e-04     6.80197927e-05    -8.81814066e-05 
   -1.20891363e-04     6.43114465e-05    -1.08086081e-04 
   -1.21530456e-04     3.95865876e-05     1.04131212e-04 
   -1.21663486e-04     3.99021308e-05     8.86046336e-05 
   -1.25915380e-04     4.02608166e-05     6.34063734e-05 
   -1.29931710e-04     3.88854924e-05     3.93478482e-05 
   -1.30382301e-04     3.64642479e-05     1.22048517e-05 
   -1.30382561e-04     3.64682509e-05    -1.22106732e-05 
   -1.29932868e-04     3.88825906e-05    -3.93561933e-05 
   -1.25916994e-04     4.02624490e-05    -6.34113051e-05 
   -1.21664256e-04     3.98990521e-05    -8.86124307e-05 
   -1.21533006e-04     3.95893636e-05    -1.04138494e-04 
   -1.21680099e-04     1.02831919e-05     1.02862496e-04 
   -1.21829039e-04     1.27788638e-05     8.60217597e-05 
   -1.26383684e-04     1.18277875e-05     6.35900973e-05 
   -1.30087502e-04     1.20467794e-05     3.68198136e-05 
   -1.30795546e-04     1.11839819e-05     1.17943662e-05 
   -1.30796694e-04     1.11846838e-05    -1.18014463e-05 
   -1.30087118e-04     1.20485039e-05    -3.68279697e-05 
   -1.26383538e-04     1.18256709e-05    -6.35963564e-05 
   -1.21829833e-04     1.27802161e-05    -8.60283799e-05 
   -1.21682409e-04     1.02806307e-05    -1.02869612e-04 
   -1.21680099e-04    -1.02831919e-05     1.02862496e-04 
   -1.21829039e-04    -1.27788638e-05     8.60217597e-05 
   -1.26383684e-04    -1.18277875e-05     6.35900973e-05 
   -1.30087502e-04    -1.20467794e-05     3.68198136e-05 
   -1.30795546e-04    -1.11839819e-05     1.17943662e-05 
   -1.30796694e-04    -1.11846838e-05    -1.18014463e-05 
   -1.30087118e-04    -1.20485039e-05    -3.68279697e-05 
   -1.26383538e-04    -1.18256709e-05    -6.35963564e-05 
   -1.21829833e-04    -1.27802161e-05    -8.60283799e-05 
   -1.21682409e-04    -1.02806307e-05    -1.02869612e-04 
   -1.21530456e-04    -3.95865876e-05     1.04131212e-04 
   -1.21663486e-04    -3.99021308e-05     8.86046336e-05 
   -1.25915380e-04    -4.02608166e-05     6.34063734e-05 
   -1.29931710e-04    -3.88854924e-05     3.93478482e-05 
   -1.30382301e-04    -3.64642479e-05     1.22048517e-05 
   -1.30382561e-04    -3.64682509e-05    -1.22106732e-05 
   -1.29932868e-04    -3.88825906e-05    -3.93561933e-05 
   -1.25916994e-04    -4.02624490e-05    -6.34113051e-05 
   -1.21664256e-04    -3.98990521e-05    -8.86124307e-05 
   -1.21533006e-04    -3.95893636e-05    -1.04138494e-04 
   -1.20887341e-04    -6.43140575e-05     1.08081716e-04 
   -1.17407791e-04    -6.80180655e-05     8.81775364e-05 
   -1.23755467e-04    -6.62913673e-05     6.84569138e-05 
   -1.25789529e-04    -6.35301976e-05     3.79665038e-05 
   -1.27154485e-04    -6.25070916e-05     1.46489753e-05 
   -1.27154139e-04    -6.25059224e-05    -1.46558221e-05 
   -1.25788604e-04    -6.35317170e-05    -3.79710993e-05 
   -1.23764167e-04    -6.62871563e-05    -6.84614641e-05 
   -1.17407737e-04    -6.80197927e-05    -8.81814066e-05 
   -1.20891363e-04    -6.43114465e-05    -1.08086081e-04 
   -1.22875893e-04    -8.91022493e-05     1.06952962e-04 
   -1.14143870e-04    -9.36377971e-05     9.07468556e-05 
   -1.21838360e-04    -9.00422401e-05     6.80852734e-05 
   -1.21723240e-04    -8.70062375e-05     3.76309578e-05 
   -1.23053072e-04    -8.63928398e-05     1.50394936e-05 
   -1.23054483e-04    -8.63990173e-05    -1.50434234e-05 
   -1.21721109e-04    -8.69991162e-05    -3.76339841e-05 
   -1.21844646e-04    -9.00469706e-05    -6.80891942e-05 
   -1.14145904e-04    -9.36323872e-05    -9.07473349e-05 
   -1.22887077e-04    -8.91004977e-05    -1.06957367e-04 
   -1.24746645e-04    -1.17434391e-04     1.12109653e-04 
   -1.14630727e-04    -1.09296762e-04     8.92198983e-05 
   -1.23084825e-04    -1.09039072e-04     6.77400128e-05 
   -1.22760675e-04    -1.04935785e-04     3.43500321e-05 
   -1.23247113e-04    -1.03646298e-04     1.54165539e-05 
   -1.23247217e-04    -1.03645515e-04    -1.54249419e-05 
   -1.22760218e-04    -1.04936203e-04    -3.43557935e-05 
   -1.23086761e-04    -1.09037361e-04    -6.77519186e-05 
   -1.14627742e-04    -1.09298073e-04    -8.92251000e-05 
   -1.24741248e-04    -1.17433317e-04    -1.12118492e-04 
   -6.51193337e-05     1.14077921e-04     1.09174321e-04 
   -7.32777642e-05     1.06877132e-04     9.38843918e-05 
   -6.82845708e-05     1.04927310e-04     6.64212291e-05 
   -7.23048854e-05     1.03204813e-04     4.12057301e-05 
   -7.50098176e-05     1.00893528e-04     1.40125681e-05 
   -7.50044110e-05     1.00893142e-04    -1.40216019e-05 
   -7.23116175e-05     1.03204091e-04    -4.12157052e-05 
   -6.82818491e-05     1.04926332e-04    -6.64313381e-05 
   -7.32861939e-05     1.06876819e-04    -9.39008535e-05 
   -6.51037202e-05     1.14072881e-04    -1.09181183e-04 
   -6.55765418e-05     9.44489332e-05     1.05407728e-04 
   -6.91349591e-05     9.38022061e-05     9.44804487e-05 
   -6.68090076e-05     8.97179499e-05     6.71317365e-05 
   -7.07036157e-05     8.84217617e-05     4.33648852e-05 
   -7.48004973e-05     8.63172576e-05     1.40854508e-05 
   -7.47960279e-05     8.63218827e-05    -1.40897394e-05 
   -7.07078188e-05     8.84184593e-05    -4.33724793e-05 
   -6.68075621e-05     8.97230258e-05    -6.71336769e-05 
   -6.91468696e-05     9.38009034e-05    -9.44949471e-05 
   -6.55737906e-05     9.44612385e-05    -1.05413706e-04 
   -6.90836501e-05     6.59384373e-05     1.04069407e-04 
   -6.96665839e-05     6.73618384e-05     9.06651329e-05 
   -7.11476715e-05     6.73703199e-05     6.75047602e-05 
   -7.35422191e-05     6.39725108e-05     4.27644692e-05 
   -7.74309377e-05     6.33564012e-05     1.39946082e-05 
   -7.74274180e-05     6.33554847e-05    -1.40000085e-05 
   -7.35464294e-05     6.39735478e-05    -4.27715754e-05 
   -7.11496179e-05     6.73673542e-05    -6.75073599e-05 
   -6.96724117e-05     6.73607104e-05    -9.06764932e-05 
   -6.90828258e-05     6.59388409e-05    -1.04075533e-04 
   -6.93432598e-05     4.27525158e-05     1.02579744e-04 
   -7.10664622e-05     4.17313335e-05     8.82427824e-05 
   -7.21966350e-05     4.29810836e-05     6.44953360e-05 
   -7.48218927e-05     4.21359218e-05     4.25905472e-05 
   -7.88091837e-05     3.89211275e-05     1.38896409e-05 
   -7.88068319e-05     3.89246568e-05    -1.38954005e-05 
   -7.48280524e-05     4.21334882e-05    -4.25994362e-05 
   -7.21965469e-05     4.29845324e-05    -6.45016699e-05 
   -7.10717258e-05     4.17290307e-05    -8.82532188e-05 
   -6.93441045e-05     4.27580329e-05    -1.02585694e-04 
   -7.50445950e-05     1.15613644e-05     1.00224184e-04 
   -7.44752336e-05     1.43372127e-05     8.56346363e-05 
   -7.74278130e-05     1.34733329e-05     6.46690420e-05 