# vtk DataFile Version 2.0 
generated by Lattice Boltzmann Method time =   9.81495458e-01
ASCII 
DATASET UNSTRUCTURED_GRID

POINTS   1000 FLOAT 
  0.00000000e+00   0.00000000e+00   0.00000000e+00 
  0.00000000e+00   0.00000000e+00   1.00000000e-01 
  0.00000000e+00   0.00000000e+00   2.00000000e-01 
  0.00000000e+00   0.00000000e+00   3.00000000e-01 
  0.00000000e+00   0.00000000e+00   4.00000000e-01 
  0.00000000e+00   0.00000000e+00   5.00000000e-01 
  0.00000000e+00   0.00000000e+00   6.00000000e-01 
  0.00000000e+00   0.00000000e+00   7.00000000e-01 
  0.00000000e+00   0.00000000e+00   8.00000000e-01 
  0.00000000e+00   0.00000000e+00   9.00000000e-01 
  0.00000000e+00   1.00000000e-01   0.00000000e+00 
  0.00000000e+00   1.00000000e-01   1.00000000e-01 
  0.00000000e+00   1.00000000e-01   2.00000000e-01 
  0.00000000e+00   1.00000000e-01   3.00000000e-01 
  0.00000000e+00   1.00000000e-01   4.00000000e-01 
  0.00000000e+00   1.00000000e-01   5.00000000e-01 
  0.00000000e+00   1.00000000e-01   6.00000000e-01 
  0.00000000e+00   1.00000000e-01   7.00000000e-01 
  0.00000000e+00   1.00000000e-01   8.00000000e-01 
  0.00000000e+00   1.00000000e-01   9.00000000e-01 
  0.00000000e+00   2.00000000e-01   0.00000000e+00 
  0.00000000e+00   2.00000000e-01   1.00000000e-01 
  0.00000000e+00   2.00000000e-01   2.00000000e-01 
  0.00000000e+00   2.00000000e-01   3.00000000e-01 
  0.00000000e+00   2.00000000e-01   4.00000000e-01 
  0.00000000e+00   2.00000000e-01   5.00000000e-01 
  0.00000000e+00   2.00000000e-01   6.00000000e-01 
  0.00000000e+00   2.00000000e-01   7.00000000e-01 
  0.00000000e+00   2.00000000e-01   8.00000000e-01 
  0.00000000e+00   2.00000000e-01   9.00000000e-01 
  0.00000000e+00   3.00000000e-01   0.00000000e+00 
  0.00000000e+00   3.00000000e-01   1.00000000e-01 
  0.00000000e+00   3.00000000e-01   2.00000000e-01 
  0.00000000e+00   3.00000000e-01   3.00000000e-01 
  0.00000000e+00   3.00000000e-01   4.00000000e-01 
  0.00000000e+00   3.00000000e-01   5.00000000e-01 
  0.00000000e+00   3.00000000e-01   6.00000000e-01 
  0.00000000e+00   3.00000000e-01   7.00000000e-01 
  0.00000000e+00   3.00000000e-01   8.00000000e-01 
  0.00000000e+00   3.00000000e-01   9.00000000e-01 
  0.00000000e+00   4.00000000e-01   0.00000000e+00 
  0.00000000e+00   4.00000000e-01   1.00000000e-01 
  0.00000000e+00   4.00000000e-01   2.00000000e-01 
  0.00000000e+00   4.00000000e-01   3.00000000e-01 
  0.00000000e+00   4.00000000e-01   4.00000000e-01 
  0.00000000e+00   4.00000000e-01   5.00000000e-01 
  0.00000000e+00   4.00000000e-01   6.00000000e-01 
  0.00000000e+00   4.00000000e-01   7.00000000e-01 
  0.00000000e+00   4.00000000e-01   8.00000000e-01 
  0.00000000e+00   4.00000000e-01   9.00000000e-01 
  0.00000000e+00   5.00000000e-01   0.00000000e+00 
  0.00000000e+00   5.00000000e-01   1.00000000e-01 
  0.00000000e+00   5.00000000e-01   2.00000000e-01 
  0.00000000e+00   5.00000000e-01   3.00000000e-01 
  0.00000000e+00   5.00000000e-01   4.00000000e-01 
  0.00000000e+00   5.00000000e-01   5.00000000e-01 
  0.00000000e+00   5.00000000e-01   6.00000000e-01 
  0.00000000e+00   5.00000000e-01   7.00000000e-01 
  0.00000000e+00   5.00000000e-01   8.00000000e-01 
  0.00000000e+00   5.00000000e-01   9.00000000e-01 
  0.00000000e+00   6.00000000e-01   0.00000000e+00 
  0.00000000e+00   6.00000000e-01   1.00000000e-01 
  0.00000000e+00   6.00000000e-01   2.00000000e-01 
  0.00000000e+00   6.00000000e-01   3.00000000e-01 
  0.00000000e+00   6.00000000e-01   4.00000000e-01 
  0.00000000e+00   6.00000000e-01   5.00000000e-01 
  0.00000000e+00   6.00000000e-01   6.00000000e-01 
  0.00000000e+00   6.00000000e-01   7.00000000e-01 
  0.00000000e+00   6.00000000e-01   8.00000000e-01 
  0.00000000e+00   6.00000000e-01   9.00000000e-01 
  0.00000000e+00   7.00000000e-01   0.00000000e+00 
  0.00000000e+00   7.00000000e-01   1.00000000e-01 
  0.00000000e+00   7.00000000e-01   2.00000000e-01 
  0.00000000e+00   7.00000000e-01   3.00000000e-01 
  0.00000000e+00   7.00000000e-01   4.00000000e-01 
  0.00000000e+00   7.00000000e-01   5.00000000e-01 
  0.00000000e+00   7.00000000e-01   6.00000000e-01 
  0.00000000e+00   7.00000000e-01   7.00000000e-01 
  0.00000000e+00   7.00000000e-01   8.00000000e-01 
  0.00000000e+00   7.00000000e-01   9.00000000e-01 
  0.00000000e+00   8.00000000e-01   0.00000000e+00 
  0.00000000e+00   8.00000000e-01   1.00000000e-01 
  0.00000000e+00   8.00000000e-01   2.00000000e-01 
  0.00000000e+00   8.00000000e-01   3.00000000e-01 
  0.00000000e+00   8.00000000e-01   4.00000000e-01 
  0.00000000e+00   8.00000000e-01   5.00000000e-01 
  0.00000000e+00   8.00000000e-01   6.00000000e-01 
  0.00000000e+00   8.00000000e-01   7.00000000e-01 
  0.00000000e+00   8.00000000e-01   8.00000000e-01 
  0.00000000e+00   8.00000000e-01   9.00000000e-01 
  0.00000000e+00   9.00000000e-01   0.00000000e+00 
  0.00000000e+00   9.00000000e-01   1.00000000e-01 
  0.00000000e+00   9.00000000e-01   2.00000000e-01 
  0.00000000e+00   9.00000000e-01   3.00000000e-01 
  0.00000000e+00   9.00000000e-01   4.00000000e-01 
  0.00000000e+00   9.00000000e-01   5.00000000e-01 
  0.00000000e+00   9.00000000e-01   6.00000000e-01 
  0.00000000e+00   9.00000000e-01   7.00000000e-01 
  0.00000000e+00   9.00000000e-01   8.00000000e-01 
  0.00000000e+00   9.00000000e-01   9.00000000e-01 
  1.00000000e-01   0.00000000e+00   0.00000000e+00 
  1.00000000e-01   0.00000000e+00   1.00000000e-01 
  1.00000000e-01   0.00000000e+00   2.00000000e-01 
  1.00000000e-01   0.00000000e+00   3.00000000e-01 
  1.00000000e-01   0.00000000e+00   4.00000000e-01 
  1.00000000e-01   0.00000000e+00   5.00000000e-01 
  1.00000000e-01   0.00000000e+00   6.00000000e-01 
  1.00000000e-01   0.00000000e+00   7.00000000e-01 
  1.00000000e-01   0.00000000e+00   8.00000000e-01 
  1.00000000e-01   0.00000000e+00   9.00000000e-01 
  1.00000000e-01   1.00000000e-01   0.00000000e+00 
  1.00000000e-01   1.00000000e-01   1.00000000e-01 
  1.00000000e-01   1.00000000e-01   2.00000000e-01 
  1.00000000e-01   1.00000000e-01   3.00000000e-01 
  1.00000000e-01   1.00000000e-01   4.00000000e-01 
  1.00000000e-01   1.00000000e-01   5.00000000e-01 
  1.00000000e-01   1.00000000e-01   6.00000000e-01 
  1.00000000e-01   1.00000000e-01   7.00000000e-01 
  1.00000000e-01   1.00000000e-01   8.00000000e-01 
  1.00000000e-01   1.00000000e-01   9.00000000e-01 
  1.00000000e-01   2.00000000e-01   0.00000000e+00 
  1.00000000e-01   2.00000000e-01   1.00000000e-01 
  1.00000000e-01   2.00000000e-01   2.00000000e-01 
  1.00000000e-01   2.00000000e-01   3.00000000e-01 
  1.00000000e-01   2.00000000e-01   4.00000000e-01 
  1.00000000e-01   2.00000000e-01   5.00000000e-01 
  1.00000000e-01   2.00000000e-01   6.00000000e-01 
  1.00000000e-01   2.00000000e-01   7.00000000e-01 
  1.00000000e-01   2.00000000e-01   8.00000000e-01 
  1.00000000e-01   2.00000000e-01   9.00000000e-01 
  1.00000000e-01   3.00000000e-01   0.00000000e+00 
  1.00000000e-01   3.00000000e-01   1.00000000e-01 
  1.00000000e-01   3.00000000e-01   2.00000000e-01 
  1.00000000e-01   3.00000000e-01   3.00000000e-01 
  1.00000000e-01   3.00000000e-01   4.00000000e-01 
  1.00000000e-01   3.00000000e-01   5.00000000e-01 
  1.00000000e-01   3.00000000e-01   6.00000000e-01 
  1.00000000e-01   3.00000000e-01   7.00000000e-01 
  1.00000000e-01   3.00000000e-01   8.00000000e-01 
  1.00000000e-01   3.00000000e-01   9.00000000e-01 
  1.00000000e-01   4.00000000e-01   0.00000000e+00 
  1.00000000e-01   4.00000000e-01   1.00000000e-01 
  1.00000000e-01   4.00000000e-01   2.00000000e-01 
  1.00000000e-01   4.00000000e-01   3.00000000e-01 
  1.00000000e-01   4.00000000e-01   4.00000000e-01 
  1.00000000e-01   4.00000000e-01   5.00000000e-01 
  1.00000000e-01   4.00000000e-01   6.00000000e-01 
  1.00000000e-01   4.00000000e-01   7.00000000e-01 
  1.00000000e-01   4.00000000e-01   8.00000000e-01 
  1.00000000e-01   4.00000000e-01   9.00000000e-01 
  1.00000000e-01   5.00000000e-01   0.00000000e+00 
  1.00000000e-01   5.00000000e-01   1.00000000e-01 
  1.00000000e-01   5.00000000e-01   2.00000000e-01 
  1.00000000e-01   5.00000000e-01   3.00000000e-01 
  1.00000000e-01   5.00000000e-01   4.00000000e-01 
  1.00000000e-01   5.00000000e-01   5.00000000e-01 
  1.00000000e-01   5.00000000e-01   6.00000000e-01 
  1.00000000e-01   5.00000000e-01   7.00000000e-01 
  1.00000000e-01   5.00000000e-01   8.00000000e-01 
  1.00000000e-01   5.00000000e-01   9.00000000e-01 
  1.00000000e-01   6.00000000e-01   0.00000000e+00 
  1.00000000e-01   6.00000000e-01   1.00000000e-01 
  1.00000000e-01   6.00000000e-01   2.00000000e-01 
  1.00000000e-01   6.00000000e-01   3.00000000e-01 
  1.00000000e-01   6.00000000e-01   4.00000000e-01 
  1.00000000e-01   6.00000000e-01   5.00000000e-01 
  1.00000000e-01   6.00000000e-01   6.00000000e-01 
  1.00000000e-01   6.00000000e-01   7.00000000e-01 
  1.00000000e-01   6.00000000e-01   8.00000000e-01 
  1.00000000e-01   6.00000000e-01   9.00000000e-01 
  1.00000000e-01   7.00000000e-01   0.00000000e+00 
  1.00000000e-01   7.00000000e-01   1.00000000e-01 
  1.00000000e-01   7.00000000e-01   2.00000000e-01 
  1.00000000e-01   7.00000000e-01   3.00000000e-01 
  1.00000000e-01   7.00000000e-01   4.00000000e-01 
  1.00000000e-01   7.00000000e-01   5.00000000e-01 
  1.00000000e-01   7.00000000e-01   6.00000000e-01 
  1.00000000e-01   7.00000000e-01   7.00000000e-01 
  1.00000000e-01   7.00000000e-01   8.00000000e-01 
  1.00000000e-01   7.00000000e-01   9.00000000e-01 
  1.00000000e-01   8.00000000e-01   0.00000000e+00 
  1.00000000e-01   8.00000000e-01   1.00000000e-01 
  1.00000000e-01   8.00000000e-01   2.00000000e-01 
  1.00000000e-01   8.00000000e-01   3.00000000e-01 
  1.00000000e-01   8.00000000e-01   4.00000000e-01 
  1.00000000e-01   8.00000000e-01   5.00000000e-01 
  1.00000000e-01   8.00000000e-01   6.00000000e-01 
  1.00000000e-01   8.00000000e-01   7.00000000e-01 
  1.00000000e-01   8.00000000e-01   8.00000000e-01 
[...]
POINT_DATA   1000
FIELD solution 1
u 3   1000 DOUBLE
   -1.19034014e-04     6.57962148e-05     6.77025026e-05 
   -1.32967225e-04     6.46947343e-05     5.33906731e-05 
   -1.46036469e-04     6.04163460e-05     3.78769573e-05 
   -1.55325334e-04     5.61970295e-05     2.12126046e-05 
   -1.60975338e-04     5.36962953e-05     4.79819559e-06 
   -1.60975998e-04     5.36984540e-05    -4.80718298e-06 
   -1.55326371e-04     5.61957366e-05    -2.12237463e-05 
   -1.46040782e-04     6.04166505e-05    -3.78864373e-05 
   -1.32974326e-04     6.46904114e-05    -5.34025113e-05 
   -1.18914507e-04     6.57415884e-05    -6.76931422e-05 
   -1.30228781e-04     5.20696185e-05     6.48254143e-05 
   -1.41506795e-04     5.05347864e-05     5.01670326e-05 
   -1.55910621e-04     4.53994655e-05     3.68789077e-05 
   -1.65938033e-04     4.21636024e-05     1.87116934e-05 
   -1.72370758e-04     3.89898473e-05     4.58209468e-06 
   -1.72371335e-04     3.89891751e-05    -4.59351443e-06 
   -1.65939885e-04     4.21654262e-05    -1.87231995e-05 
   -1.55914795e-04     4.53971570e-05    -3.68908813e-05 
   -1.41508320e-04     5.05660742e-05    -5.02023179e-05 
   -1.30237354e-04     5.20751881e-05    -6.48252942e-05 
   -1.44702175e-04     4.01940976e-05     5.99868835e-05 
   -1.55726389e-04     3.77505347e-05     4.51265568e-05 
   -1.72850481e-04     3.49229768e-05     3.38275540e-05 
   -1.84149931e-04     3.23712447e-05     1.79736080e-05 
   -1.91249415e-04     2.99581192e-05     4.28160641e-06 
   -1.91249777e-04     2.99577946e-05    -4.29507035e-06 
   -1.84151147e-04     3.23687077e-05    -1.79874931e-05 
   -1.72850193e-04     3.49486519e-05    -3.38622961e-05 
   -1.55731332e-04     3.77536839e-05    -4.51310673e-05 
   -1.44708822e-04     4.01950980e-05    -5.99916966e-05 
   -1.53735159e-04     2.20063134e-05     5.54312722e-05 
   -1.65547804e-04     1.97526160e-05     4.12993471e-05 
   -1.83976298e-04     1.85141804e-05     3.18134143e-05 
   -1.95244715e-04     1.66862612e-05     1.63574810e-05 
   -2.03241962e-04     1.56202018e-05     4.26759949e-06 
   -2.03242351e-04     1.56179643e-05    -4.28267480e-06 
   -1.95244050e-04     1.67088451e-05    -1.63948990e-05 
   -1.83977736e-04     1.85133446e-05    -3.18208185e-05 
   -1.65550501e-04     1.97496415e-05    -4.13057008e-05 
   -1.53737820e-04     2.20025545e-05    -5.54359354e-05 
   -1.59698686e-04     6.54920868e-06     5.27902941e-05 
   -1.71905428e-04     5.34320737e-06     3.85612532e-05 
   -1.91021118e-04     4.91631028e-06     2.97417126e-05 
   -2.03203107e-04     4.51386242e-06     1.56376801e-05 
   -2.10736858e-04     3.80799193e-06     3.72875253e-06 
   -2.10736540e-04     3.82967544e-06    -3.76605834e-06 
   -2.03203532e-04     4.51250096e-06    -1.56503945e-05 
   -1.91021972e-04     4.91448972e-06    -2.97501867e-05 
   -1.71906809e-04     5.34228537e-06    -3.85669120e-05 
   -1.59700160e-04     6.54476362e-06    -5.27971143e-05 
   -1.59698686e-04    -6.54920868e-06     5.27902941e-05 
   -1.71905428e-04    -5.34320737e-06     3.85612532e-05 
   -1.91021118e-04    -4.91631028e-06     2.97417126e-05 
   -2.03203107e-04    -4.51386242e-06     1.56376801e-05 
   -2.10736858e-04    -3.80799193e-06     3.72875253e-06 
   -2.10736540e-04    -3.82967544e-06    -3.76605834e-06 
   -2.03203532e-04    -4.51250096e-06    -1.56503945e-05 
   -1.91021972e-04    -4.91448972e-06    -2.97501867e-05 
   -1.71906809e-04    -5.34228537e-06    -3.85669120e-05 
   -1.59700160e-04    -6.54476362e-06    -5.27971143e-05 
   -1.53735159e-04    -2.20063134e-05     5.54312722e-05 
   -1.65547804e-04    -1.97526160e-05     4.12993471e-05 
   -1.83976298e-04    -1.85141804e-05     3.18134143e-05 
   -1.95244715e-04    -1.66862612e-05     1.63574810e-05 
   -2.03241962e-04    -1.56202018e-05     4.26759949e-06 
   -2.03242351e-04    -1.56179643e-05    -4.28267480e-06 
   -1.95244050e-04    -1.67088451e-05    -1.63948990e-05 
   -1.83977736e-04    -1.85133446e-05    -3.18208185e-05 
   -1.65550501e-04    -1.97496415e-05    -4.13057008e-05 
   -1.53737820e-04    -2.20025545e-05    -5.54359354e-05 
   -1.44702175e-04    -4.01940976e-05     5.99868835e-05 
   -1.55726389e-04    -3.77505347e-05     4.51265568e-05 
   -1.72850481e-04    -3.49229768e-05     3.38275540e-05 
   -1.84149931e-04    -3.23712447e-05     1.79736080e-05 
   -1.91249415e-04    -2.99581192e-05     4.28160641e-06 
   -1.91249777e-04    -2.99577946e-05    -4.29507035e-06 
   -1.84151147e-04    -3.23687077e-05    -1.79874931e-05 
   -1.72850193e-04    -3.49486519e-05    -3.38622961e-05 
   -1.55731332e-04    -3.77536839e-05    -4.51310673e-05 
   -1.44708822e-04    -4.01950980e-05    -5.99916966e-05 
   -1.30228781e-04    -5.20696185e-05     6.48254143e-05 
   -1.41506795e-04    -5.05347864e-05     5.01670326e-05 
   -1.55910621e-04    -4.53994655e-05     3.68789077e-05 
   -1.65938033e-04    -4.21636024e-05     1.87116934e-05 
   -1.72370758e-04    -3.89898473e-05     4.58209468e-06 
   -1.72371335e-04    -3.89891751e-05    -4.59351443e-06 
   -1.65939885e-04    -4.21654262e-05    -1.87231995e-05 
   -1.55914795e-04    -4.53971570e-05    -3.68908813e-05 
   -1.41508320e-04    -5.05660742e-05    -5.02023179e-05 
   -1.30237354e-04    -5.20751881e-05    -6.48252942e-05 
   -1.19034014e-04    -6.57962148e-05     6.77025026e-05 
   -1.32967225e-04    -6.46947343e-05     5.33906731e-05 
   -1.46036469e-04    -6.04163460e-05     3.78769573e-05 
   -1.55325334e-04    -5.61970295e-05     2.12126046e-05 
   -1.60975338e-04    -5.36962953e-05     4.79819559e-06 
   -1.60975998e-04    -5.36984540e-05    -4.80718298e-06 
   -1.55326371e-04    -5.61957366e-05    -2.12237463e-05 
   -1.46040782e-04    -6.04166505e-05    -3.78864373e-05 
   -1.32974326e-04    -6.46904114e-05    -5.34025113e-05 
   -1.18914507e-04    -6.57415884e-05    -6.76931422e-05 
   -8.32235096e-05     6.68639509e-05     6.93273900e-05 
   -9.28847868e-05     6.76482674e-05     5.99831370e-05 
   -1.04940330e-04     6.35265908e-05     4.41592774e-05 
   -1.12302384e-04     5.89137948e-05     2.42969999e-05 
   -1.18242876e-04     5.56604500e-05     6.89781080e-06 
   -1.18243838e-04     5.56615890e-05    -6.89769563e-06 
   -1.12302831e-04     5.89143232e-05    -2.42973545e-05 
   -1.04945925e-04     6.35274099e-05    -4.41588685e-05 
   -9.28843943e-05     6.76444743e-05    -5.99835284e-05 
   -8.31898888e-05     6.68562957e-05    -6.93192469e-05 
   -9.26870765e-05     5.88293506e-05     6.77367798e-05 
   -1.03608877e-04     5.73309519e-05     5.65793725e-05 
   -1.15280090e-04     5.47728705e-05     4.40839024e-05 
   -1.23426250e-04     5.16547686e-05     2.29823666e-05 
   -1.29767889e-04     4.91391418e-05     6.77224695e-06 
   -1.29768649e-04     4.91386187e-05    -6.77428633e-06 
   -1.23427163e-04     5.16560604e-05    -2.29834404e-05 
   -1.15280149e-04     5.47705182e-05    -4.40863955e-05 
   -1.03622365e-04     5.73217720e-05    -5.65702975e-05 
   -9.26906238e-05     5.88281070e-05    -6.77342497e-05 
   -1.03275722e-04     4.50225303e-05     6.33675989e-05 
   -1.14736938e-04     4.41092786e-05     5.51003644e-05 
   -1.29145029e-04     4.13518922e-05     4.07046476e-05 
   -1.37653858e-04     3.94140644e-05     2.20693693e-05 
   -1.44694273e-04     3.74321536e-05     6.10097218e-06 
   -1.44694758e-04     3.74320216e-05    -6.10511391e-06 
   -1.37653112e-04     3.94123411e-05    -2.20750360e-05 
   -1.29150872e-04     4.13527080e-05    -4.07091840e-05 
   -1.14735847e-04     4.41080416e-05    -5.51018569e-05 
   -1.03281058e-04     4.50205049e-05    -6.33707141e-05 
   -1.11336124e-04     2.46475576e-05     5.85646577e-05 
   -1.23205157e-04     2.38073768e-05     5.11907165e-05 
   -1.37528386e-04     2.22711020e-05     3.93164375e-05 
   -1.47318417e-04     2.03818311e-05     2.02152467e-05 
   -1.53964533e-04     2.00618202e-05     6.03687782e-06 
   -1.53964295e-04     2.00607666e-05    -6.04321152e-06 
   -1.47320392e-04     2.03839015e-05    -2.02235941e-05 
   -1.37528101e-04     2.22699342e-05    -3.93194808e-05 
   -1.23207010e-04     2.38031947e-05    -5.11935594e-05 
   -1.11338761e-04     2.46424614e-05    -5.85684227e-05 
   -1.16885523e-04     7.85828831e-06     5.52622457e-05 
   -1.29140878e-04     7.01643691e-06     4.92473210e-05 
   -1.44309926e-04     6.50161174e-06     3.75300543e-05 
   -1.53887921e-04     6.04345745e-06     2.01726217e-05 
   -1.60793585e-04     5.43323964e-06     5.41466270e-06 
   -1.60794049e-04     5.43616237e-06    -5.42496491e-06 
   -1.53888903e-04     6.04274779e-06    -2.01782956e-05 
   -1.44311814e-04     6.50046404e-06    -3.75331668e-05 
   -1.29142331e-04     7.01494200e-06    -4.92500484e-05 
   -1.16888472e-04     7.85548050e-06    -5.52666459e-05 
   -1.16885523e-04    -7.85828831e-06     5.52622457e-05 
   -1.29140878e-04    -7.01643691e-06     4.92473210e-05 
   -1.44309926e-04    -6.50161174e-06     3.75300543e-05 
   -1.53887921e-04    -6.04345745e-06     2.01726217e-05 
   -1.60793585e-04    -5.43323964e-06     5.41466270e-06 
   -1.60794049e-04    -5.43616237e-06    -5.42496491e-06 
   -1.53888903e-04    -6.04274779e-06    -2.01782956e-05 
   -1.44311814e-04    -6.50046404e-06    -3.75331668e-05 
   -1.29142331e-04    -7.01494200e-06    -4.92500484e-05 
   -1.16888472e-04    -7.85548050e-06    -5.52666459e-05 
   -1.11336124e-04    -2.46475576e-05     5.85646577e-05 
   -1.23205157e-04    -2.38073768e-05     5.11907165e-05 
   -1.37528386e-04    -2.22711020e-05     3.93164375e-05 
   -1.47318417e-04    -2.03818311e-05     2.02152467e-05 
   -1.53964533e-04    -2.00618202e-05     6.03687782e-06 
   -1.53964295e-04    -2.00607666e-05    -6.04321152e-06 
   -1.47320392e-04    -2.03839015e-05    -2.02235941e-05 
   -1.37528101e-04    -2.22699342e-05    -3.93194808e-05 
   -1.23207010e-04    -2.38031947e-05    -5.11935594e-05 
   -1.11338761e-04    -2.46424614e-05    -5.85684227e-05 
   -1.03275722e-04    -4.50225303e-05     6.33675989e-05 
   -1.14736938e-04    -4.41092786e-05     5.51003644e-05 
   -1.29145029e-04    -4.13518922e-05     4.07046476e-05 
   -1.37653858e-04    -3.94140644e-05     2.20693693e-05 
   -1.44694273e-04    -3.74321536e-05     6.10097218e-06 
   -1.44694758e-04    -3.74320216e-05    -6.10511391e-06 
   -1.37653112e-04    -3.94123411e-05    -2.20750360e-05 
   -1.29150872e-04    -4.13527080e-05    -4.07091840e-05 
   -1.14735847e-04    -4.41080416e-05    -5.51018569e-05 
   -1.03281058e-04    -4.50205049e-05    -6.33707141e-05 
   -9.26870765e-05    -5.88293506e-05     6.77367798e-05 
   -1.03608877e-04    -5.73309519e-05     5.65793725e-05 
   -1.15280090e-04    -5.47728705e-05     4.40839024e-05 
   -1.23426250e-04    -5.16547686e-05     2.29823666e-05 
   -1.29767889e-04    -4.91391418e-05     6.77224695e-06 
   -1.29768649e-04    -4.91386187e-05    -6.77428633e-06 
   -1.23427163e-04    -5.16560604e-05    -2.29834404e-05 
   -1.15280149e-04    -5.47705182e-05    -4.40863955e-05 
   -1.03622365e-04    -5.73217720e-05    -5.65702975e-05 
   -9.26906238e-05    -5.88281070e-05    -6.77342497e-05 
   -8.32235096e-05    -6.68639509e-05     6.93273900e-05 
   -9.28847868e-05    -6.76482674e-05     5.99831370e-05 
   -1.04940330e-04    -6.35265908e-05     4.41592774e-05 
   -1.12302384e-04    -5.89137948e-05     2.42969999e-05 
   -1.18242876e-04    -5.56604500e-05     6.89781080e-06 
   -1.18243838e-04    -5.56615890e-05    -6.89769563e-06 
   -1.12302831e-04    -5.89143232e-05    -2.42973545e-05 
   -1.04945925e-04    -6.35274099e-05    -4.41588685e-05 
   -9.28843943e-05    -6.76444743e-05    -5.99835284e-05 
   -8.31898888e-05    -6.68562957e-05    -6.93192469e-05 
   -4.38108079e-05     7.67799687e-05     7.91420529e-05 
   -5.72551684e-05     7.88534252e-05     6.71945936e-05 
   -6.29422379e-05     7.46941100e-05     5.11082429e-05 
   -6.87353949e-05     7.01024500e-05     3.25014619e-05 
   -7.13145251e-05     6.67174550e-05     1.01430610e-05 
   -7.13165947e-05     6.67184261e-05    -1.01456947e-05 
   -6.87376107e-05     7.01029516e-05    -3.25034978e-05 
   -6.29418461e-05     7.46927341e-05    -5.11107248e-05 
   -5.72562524e-05     7.88518657e-05    -6.71979726e-05 
   -4.37855499e-05     7.67780690e-05    -7.91415266e-05 
   -5.62149322e-05     6.74179726e-05     7.88549652e-05 
   -6.84843192e-05     6.48910544e-05     6.50618378e-05 
   -7.47544507e-05     6.28084707e-05     5.13583482e-05 
   -8.13882433e-05     5.95564819e-05     3.19240757e-05 
   -8.48274760e-05     5.70461094e-05     1.01936337e-05 
   -8.48282368e-05     5.70460255e-05    -1.01958961e-05 
   -8.13879850e-05     5.95567171e-05    -3.19276209e-05 
   -7.47562178e-05     6.28071477e-05    -5.13569213e-05 
   -6.84965061e-05     6.48877234e-05    -6.50596096e-05 
   -5.62157146e-05     6.74216612e-05    -7.88547197e-05 
   -6.22659603e-05     5.16996730e-05     7.47448481e-05 
   -7.49934732e-05     5.13633914e-05     6.28757801e-05 
   -8.23650238e-05     4.80225886e-05     4.75665351e-05 
   -8.85339565e-05     4.68777451e-05     3.02038910e-05 
   -9.21620540e-05     4.52724177e-05     9.59714074e-06 
   -9.21619555e-05     4.52722700e-05    -9.60183389e-06 
   -8.85350965e-05     4.68765981e-05    -3.02062804e-05 
   -8.23710883e-05     4.80201721e-05    -4.75677624e-05 
   -7.49955083e-05     5.13591126e-05    -6.28768263e-05 
   -6.22668813e-05     5.16991279e-05    -7.47450025e-05 
   -6.75951284e-05     3.30889719e-05     6.99667077e-05 
   -8.09721603e-05     3.22890890e-05     5.94016701e-05 
   -8.82645859e-05     3.03712598e-05     4.67748318e-05 
   -9.52871529e-05     2.82062206e-05     2.81914388e-05 
   -9.86550724e-05     2.85327738e-05     9.55282374e-06 
   -9.86565660e-05     2.85311437e-05    -9.55821129e-06 
   -9.52913276e-05     2.82083446e-05    -2.81988913e-05 
   -8.82654201e-05     3.03689427e-05    -4.67779890e-05 
   -8.09708837e-05     3.22883779e-05    -5.94034464e-05 
   -6.75979139e-05     3.30863320e-05    -6.99695054e-05 
   -7.01370892e-05     1.08915142e-05     6.65667654e-05 
   -8.42741874e-05     1.06016665e-05     5.71988123e-05 
   -9.17545215e-05     9.86321889e-06     4.56281383e-05 
   -9.85084478e-05     9.47026116e-06     2.87549863e-05 
   -1.02389914e-04     8.96715852e-06     9.03849367e-06 
   -1.02392379e-04     8.97106766e-06    -9.04701016e-06 
   -9.85106122e-05     9.46823773e-06    -2.87596286e-05 
   -9.17556108e-05     9.86367717e-06    -4.56313892e-05 
   -8.42764819e-05     1.06012740e-05    -5.72013893e-05 
   -7.01407603e-05     1.08897434e-05    -6.65702499e-05 
   -7.01370892e-05    -1.08915142e-05     6.65667654e-05 
   -8.42741874e-05    -1.06016665e-05     5.71988123e-05 
   -9.17545215e-05    -9.86321889e-06     4.56281383e-05 
   -9.85084478e-05    -9.47026116e-06     2.87549863e-05 
   -1.02389914e-04    -8.96715852e-06     9.03849367e-06 
   -1.02392379e-04    -8.97106766e-06    -9.04701016e-06 
   -9.85106122e-05    -9.46823773e-06    -2.87596286e-05 
   -9.17556108e-05    -9.86367717e-06    -4.56313892e-05 
   -8.42764819e-05    -1.06012740e-05    -5.72013893e-05 
   -7.01407603e-05    -1.08897434e-05    -6.65702499e-05 
   -6.75951284e-05    -3.30889719e-05     6.99667077e-05 
   -8.09721603e-05    -3.22890890e-05     5.94016701e-05 
   -8.82645859e-05    -3.03712598e-05     4.67748318e-05 
   -9.52871529e-05    -2.82062206e-05     2.81914388e-05 
   -9.86550724e-05    -2.85327738e-05     9.55282374e-06 
   -9.86565660e-05    -2.85311437e-05    -9.55821129e-06 
   -9.52913276e-05    -2.82083446e-05    -2.81988913e-05 
   -8.82654201e-05    -3.03689427e-05    -4.67779890e-05 
   -8.09708837e-05    -3.22883779e-05    -5.94034464e-05 
   -6.75979139e-05    -3.30863320e-05    -6.99695054e-05 
   -6.22659603e-05    -5.16996730e-05     7.47448481e-05 
   -7.49934732e-05    -5.13633914e-05     6.28757801e-05 
   -8.23650238e-05    -4.80225886e-05     4.75665351e-05 
   -8.85339565e-05    -4.68777451e-05     3.02038910e-05 
   -9.21620540e-05    -4.52724177e-05     9.59714074e-06 
   -9.21619555e-05    -4.52722700e-05    -9.60183389e-06 
   -8.85350965e-05    -4.68765981e-05    -3.02062804e-05 
   -8.23710883e-05    -4.80201721e-05    -4.75677624e-05 
   -7.49955083e-05    -5.13591126e-05    -6.28768263e-05 
   -6.22668813e-05    -5.16991279e-05    -7.47450025e-05 
   -5.62149322e-05    -6.74179726e-05     7.88549652e-05 
   -6.84843192e-05    -6.48910544e-05     6.50618378e-05 
   -7.47544507e-05    -6.28084707e-05     5.13583482e-05 
   -8.13882433e-05    -5.95564819e-05     3.19240757e-05 
   -8.48274760e-05    -5.70461094e-05     1.01936337e-05 
   -8.48282368e-05    -5.70460255e-05    -1.01958961e-05 
   -8.13879850e-05    -5.95567171e-05    -3.19276209e-05 
   -7.47562178e-05    -6.28071477e-05    -5.13569213e-05 
   -6.84965061e-05    -6.48877234e-05    -6.50596096e-05 
   -5.62157146e-05    -6.74216612e-05    -7.88547197e-05 
   -4.38108079e-05    -7.67799687e-05     7.91420529e-05 
   -5.72551684e-05    -7.88534252e-05     6.71945936e-05 
   -6.29422379e-05    -7.46941100e-05     5.11082429e-05 
   -6.87353949e-05    -7.01024500e-05     3.25014619e-05 
   -7.13145251e-05    -6.67174550e-05     1.01430610e-05 
   -7.13165947e-05    -6.67184261e-05    -1.01456947e-05 
   -6.87376107e-05    -7.01029516e-05    -3.25034978e-05 
   -6.29418461e-05    -7.46927341e-05    -5.11107248e-05 
   -5.72562524e-05    -7.88518657e-05    -6.71979726e-05 
   -4.37855499e-05    -7.67780690e-05    -7.91415266e-05 
   -1.48530886e-05     8.36662071e-05     8.47094034e-05 
   -2.41794811e-05     8.57417542e-05     7.58152142e-05 
   -3.03836420e-05     8.22587489e-05     5.70100440e-05 
   -3.17917201e-05     7.81578984e-05     3.59627917e-05 
   -3.08701622e-05     7.51442088e-05     1.22155634e-05 
   -3.08716682e-05     7.51443960e-05    -1.22190148e-05 
   -3.17915238e-05     7.81572079e-05    -3.59670406e-05 
   -3.03833745e-05     8.22581901e-05    -5.70142041e-05 
   -2.41783667e-05     8.57413096e-05    -7.58182079e-05 
   -1.48342615e-05     8.36672334e-05    -8.47115861e-05 
   -2.45888054e-05     7.65282050e-05     8.55890608e-05 
   -3.50263308e-05     7.28364912e-05     7.26626616e-05 
   -4.09727991e-05     7.25151222e-05     5.67217770e-05 
   -4.35200224e-05     6.90840812e-05     3.53896893e-05 
   -4.28797175e-05     6.73782100e-05     1.24480493e-05 
   -4.28796145e-05     6.73780007e-05    -1.24511200e-05 
   -4.35219264e-05     6.90835867e-05    -3.53911158e-05 
   -4.09744321e-05     7.25143112e-05    -5.67228362e-05 
   -3.50334277e-05     7.28352033e-05    -7.26624915e-05 
   -2.45886974e-05     7.65299975e-05    -8.55898920e-05 
   -2.98404843e-05     5.72574277e-05     8.22112114e-05 
   -4.07206632e-05     5.66733159e-05     7.24809005e-05 
   -4.69269988e-05     5.31663947e-05     5.30258098e-05 
   -4.91373305e-05     5.24813580e-05     3.42609478e-05 
   -4.85215097e-05     5.11724672e-05     1.19100185e-05 
   -4.85232245e-05     5.11719682e-05    -1.19132962e-05 
   -4.91393354e-05     5.24809082e-05    -3.42630600e-05 
   -4.69335331e-05     5.31658918e-05    -5.30280443e-05 
   -4.07219933e-05     5.66721297e-05    -7.24820408e-05 
   -2.98404310e-05     5.72590725e-05    -8.22121112e-05 
   -3.13233806e-05     3.65332599e-05     7.81612129e-05 
   -4.31920767e-05     3.57682363e-05     6.91130536e-05 
   -4.90532920e-05     3.43095758e-05     5.24616426e-05 
   -5.16001566e-05     3.21341595e-05     3.23054236e-05 
   -5.07219911e-05     3.29658772e-05     1.17982202e-05 
   -5.07229677e-05     3.29657072e-05    -1.18012250e-05 
   -5.16063076e-05     3.21334823e-05    -3.23099653e-05 
   -4.90552565e-05     3.43078186e-05    -5.24644433e-05 
   -4.31937253e-05     3.57665546e-05    -6.91141889e-05 
   -3.13247196e-05     3.65332613e-05    -7.81626839e-05 
   -2.99025607e-05     1.29598518e-05     7.50771305e-05 
   -4.24329516e-05     1.26933660e-05     6.76940960e-05 
   -4.82343746e-05     1.19161179e-05     5.15881939e-05 