# vtk DataFile Version 2.0 
generated by Lattice Boltzmann Method time =   1.96299092e+00
ASCII 
DATASET UNSTRUCTURED_GRID

POINTS   1000 FLOAT 
  0.00000000e+00   0.00000000e+00   0.00000000e+00 
  0.00000000e+00   0.00000000e+00   1.00000000e-01 
  0.00000000e+00   0.00000000e+00   2.00000000e-01 
  0.00000000e+00   0.00000000e+00   3.00000000e-01 
  0.00000000e+00   0.00000000e+00   4.00000000e-01 
  0.00000000e+00   0.00000000e+00   5.00000000e-01 
  0.00000000e+00   0.00000000e+00   6.00000000e-01 
  0.00000000e+00   0.00000000e+00   7.00000000e-01 
  0.00000000e+00   0.00000000e+00   8.00000000e-01 
  0.00000000e+00   0.00000000e+00   9.00000000e-01 
  0.00000000e+00   1.00000000e-01   0.00000000e+00 
  0.00000000e+00   1.00000000e-01   1.00000000e-01 
  0.00000000e+00   1.00000000e-01   2.00000000e-01 
  0.00000000e+00   1.00000000e-01   3.00000000e-01 
  0.00000000e+00   1.00000000e-01   4.00000000e-01 
  0.00000000e+00   1.00000000e-01   5.00000000e-01 
  0.00000000e+00   1.00000000e-01   6.00000000e-01 
  0.00000000e+00   1.00000000e-01   7.00000000e-01 
  0.00000000e+00   1.00000000e-01   8.00000000e-01 
  0.00000000e+00   1.00000000e-01   9.00000000e-01 
  0.00000000e+00   2.00000000e-01   0.00000000e+00 
  0.00000000e+00   2.00000000e-01   1.00000000e-01 
  0.00000000e+00   2.00000000e-01   2.00000000e-01 
  0.00000000e+00   2.00000000e-01   3.00000000e-01 
  0.00000000e+00   2.00000000e-01   4.00000000e-01 
  0.00000000e+00   2.00000000e-01   5.00000000e-01 
  0.00000000e+00   2.00000000e-01   6.00000000e-01 
  0.00000000e+00   2.00000000e-01   7.00000000e-01 
  0.00000000e+00   2.00000000e-01   8.00000000e-01 
  0.00000000e+00   2.00000000e-01   9.00000000e-01 
  0.00000000e+00   3.00000000e-01   0.00000000e+00 
  0.00000000e+00   3.00000000e-01   1.00000000e-01 
  0.00000000e+00   3.00000000e-01   2.00000000e-01 
  0.00000000e+00   3.00000000e-01   3.00000000e-01 
  0.00000000e+00   3.00000000e-01   4.00000000e-01 
  0.00000000e+00   3.00000000e-01   5.00000000e-01 
  0.00000000e+00   3.00000000e-01   6.00000000e-01 
  0.00000000e+00   3.00000000e-01   7.00000000e-01 
  0.00000000e+00   3.00000000e-01   8.00000000e-01 
  0.00000000e+00   3.00000000e-01   9.00000000e-01 
  0.00000000e+00   4.00000000e-01   0.00000000e+00 
  0.00000000e+00   4.00000000e-01   1.00000000e-01 
  0.00000000e+00   4.00000000e-01   2.00000000e-01 
  0.00000000e+00   4.00000000e-01   3.00000000e-01 
  0.00000000e+00   4.00000000e-01   4.00000000e-01 
  0.00000000e+00   4.00000000e-01   5.00000000e-01 
  0.00000000e+00   4.00000000e-01   6.00000000e-01 
  0.00000000e+00   4.00000000e-01   7.00000000e-01 
  0.00000000e+00   4.00000000e-01   8.00000000e-01 
  0.00000000e+00   4.00000000e-01   9.00000000e-01 
  0.00000000e+00   5.00000000e-01   0.00000000e+00 
  0.00000000e+00   5.00000000e-01   1.00000000e-01 
  0.00000000e+00   5.00000000e-01   2.00000000e-01 
  0.00000000e+00   5.00000000e-01   3.00000000e-01 
  0.00000000e+00   5.00000000e-01   4.00000000e-01 
  0.00000000e+00   5.00000000e-01   5.00000000e-01 
  0.00000000e+00   5.00000000e-01   6.00000000e-01 
  0.00000000e+00   5.00000000e-01   7.00000000e-01 
  0.00000000e+00   5.00000000e-01   8.00000000e-01 
  0.00000000e+00   5.00000000e-01   9.00000000e-01 
  0.00000000e+00   6.00000000e-01   0.00000000e+00 
  0.00000000e+00   6.00000000e-01   1.00000000e-01 
  0.00000000e+00   6.00000000e-01   2.00000000e-01 
  0.00000000e+00   6.00000000e-01   3.00000000e-01 
  0.00000000e+00   6.00000000e-01   4.00000000e-01 
  0.00000000e+00   6.00000000e-01   5.00000000e-01 
  0.00000000e+00   6.00000000e-01   6.00000000e-01 
  0.00000000e+00   6.00000000e-01   7.00000000e-01 
  0.00000000e+00   6.00000000e-01   8.00000000e-01 
  0.00000000e+00   6.00000000e-01   9.00000000e-01 
  0.00000000e+00   7.00000000e-01   0.00000000e+00 
  0.00000000e+00   7.00000000e-01   1.00000000e-01 
  0.00000000e+00   7.00000000e-01   2.00000000e-01 
  0.00000000e+00   7.00000000e-01   3.00000000e-01 
  0.00000000e+00   7.00000000e-01   4.00000000e-01 
  0.00000000e+00   7.00000000e-01   5.00000000e-01 
  0.00000000e+00   7.00000000e-01   6.00000000e-01 
  0.00000000e+00   7.00000000e-01   7.00000000e-01 
  0.00000000e+00   7.00000000e-01   8.00000000e-01 
  0.00000000e+00   7.00000000e-01   9.00000000e-01 
  0.00000000e+00   8.00000000e-01   0.00000000e+00 
  0.00000000e+00   8.00000000e-01   1.00000000e-01 
  0.00000000e+00   8.00000000e-01   2.00000000e-01 
  0.00000000e+00   8.00000000e-01   3.00000000e-01 
  0.00000000e+00   8.00000000e-01   4.00000000e-01 
  0.00000000e+00   8.00000000e-01   5.00000000e-01 
  0.00000000e+00   8.00000000e-01   6.00000000e-01 
  0.00000000e+00   8.00000000e-01   7.00000000e-01 
  0.00000000e+00   8.00000000e-01   8.00000000e-01 
  0.00000000e+00   8.00000000e-01   9.00000000e-01 
  0.00000000e+00   9.00000000e-01   0.00000000e+00 
  0.00000000e+00   9.00000000e-01   1.00000000e-01 
  0.00000000e+00   9.00000000e-01   2.00000000e-01 
  0.00000000e+00   9.00000000e-01   3.00000000e-01 
  0.00000000e+00   9.00000000e-01   4.00000000e-01 
  0.00000000e+00   9.00000000e-01   5.00000000e-01 
  0.00000000e+00   9.00000000e-01   6.00000000e-01 
  0.00000000e+00   9.00000000e-01   7.00000000e-01 
  0.00000000e+00   9.00000000e-01   8.00000000e-01 
  0.00000000e+00   9.00000000e-01   9.00000000e-01 
  1.00000000e-01   0.00000000e+00   0.00000000e+00 
  1.00000000e-01   0.00000000e+00   1.00000000e-01 
  1.00000000e-01   0.00000000e+00   2.00000000e-01 
  1.00000000e-01   0.00000000e+00   3.00000000e-01 
  1.00000000e-01   0.00000000e+00   4.00000000e-01 
  1.00000000e-01   0.00000000e+00   5.00000000e-01 
  1.00000000e-01   0.00000000e+00   6.00000000e-01 
  1.00000000e-01   0.00000000e+00   7.00000000e-01 
  1.00000000e-01   0.00000000e+00   8.00000000e-01 
  1.00000000e-01   0.00000000e+00   9.00000000e-01 
  1.00000000e-01   1.00000000e-01   0.00000000e+00 
  1.00000000e-01   1.00000000e-01   1.00000000e-01 
  1.00000000e-01   1.00000000e-01   2.00000000e-01 
  1.00000000e-01   1.00000000e-01   3.00000000e-01 
  1.00000000e-01   1.00000000e-01   4.00000000e-01 
  1.00000000e-01   1.00000000e-01   5.00000000e-01 
  1.00000000e-01   1.00000000e-01   6.00000000e-01 
  1.00000000e-01   1.00000000e-01   7.00000000e-01 
  1.00000000e-01   1.00000000e-01   8.00000000e-01 
  1.00000000e-01   1.00000000e-01   9.00000000e-01 
  1.00000000e-01   2.00000000e-01   0.00000000e+00 
  1.00000000e-01   2.00000000e-01   1.00000000e-01 
  1.00000000e-01   2.00000000e-01   2.00000000e-01 
  1.00000000e-01   2.00000000e-01   3.00000000e-01 
  1.00000000e-01   2.00000000e-01   4.00000000e-01 
  1.00000000e-01   2.00000000e-01   5.00000000e-01 
  1.00000000e-01   2.00000000e-01   6.00000000e-01 
  1.00000000e-01   2.00000000e-01   7.00000000e-01 
  1.00000000e-01   2.00000000e-01   8.00000000e-01 
  1.00000000e-01   2.00000000e-01   9.00000000e-01 
  1.00000000e-01   3.00000000e-01   0.00000000e+00 
  1.00000000e-01   3.00000000e-01   1.00000000e-01 
  1.00000000e-01   3.00000000e-01   2.00000000e-01 
  1.00000000e-01   3.00000000e-01   3.00000000e-01 
  1.00000000e-01   3.00000000e-01   4.00000000e-01 
  1.00000000e-01   3.00000000e-01   5.00000000e-01 
  1.00000000e-01   3.00000000e-01   6.00000000e-01 
  1.00000000e-01   3.00000000e-01   7.00000000e-01 
  1.00000000e-01   3.00000000e-01   8.00000000e-01 
  1.00000000e-01   3.00000000e-01   9.00000000e-01 
  1.00000000e-01   4.00000000e-01   0.00000000e+00 
  1.00000000e-01   4.00000000e-01   1.00000000e-01 
  1.00000000e-01   4.00000000e-01   2.00000000e-01 
  1.00000000e-01   4.00000000e-01   3.00000000e-01 
  1.00000000e-01   4.00000000e-01   4.00000000e-01 
  1.00000000e-01   4.00000000e-01   5.00000000e-01 
  1.00000000e-01   4.00000000e-01   6.00000000e-01 
  1.00000000e-01   4.00000000e-01   7.00000000e-01 
  1.00000000e-01   4.00000000e-01   8.00000000e-01 
  1.00000000e-01   4.00000000e-01   9.00000000e-01 
  1.00000000e-01   5.00000000e-01   0.00000000e+00 
  1.00000000e-01   5.00000000e-01   1.00000000e-01 
  1.00000000e-01   5.00000000e-01   2.00000000e-01 
  1.00000000e-01   5.00000000e-01   3.00000000e-01 
  1.00000000e-01   5.00000000e-01   4.00000000e-01 
  1.00000000e-01   5.00000000e-01   5.00000000e-01 
  1.00000000e-01   5.00000000e-01   6.00000000e-01 
  1.00000000e-01   5.00000000e-01   7.00000000e-01 
  1.00000000e-01   5.00000000e-01   8.00000000e-01 
  1.00000000e-01   5.00000000e-01   9.00000000e-01 
  1.00000000e-01   6.00000000e-01   0.00000000e+00 
  1.00000000e-01   6.00000000e-01   1.00000000e-01 
  1.00000000e-01   6.00000000e-01   2.00000000e-01 
  1.00000000e-01   6.00000000e-01   3.00000000e-01 
  1.00000000e-01   6.00000000e-01   4.00000000e-01 
  1.00000000e-01   6.00000000e-01   5.00000000e-01 
  1.00000000e-01   6.00000000e-01   6.00000000e-01 
  1.00000000e-01   6.00000000e-01   7.00000000e-01 
  1.00000000e-01   6.00000000e-01   8.00000000e-01 
  1.00000000e-01   6.00000000e-01   9.00000000e-01 
  1.00000000e-01   7.00000000e-01   0.00000000e+00 
  1.00000000e-01   7.00000000e-01   1.00000000e-01 
  1.00000000e-01   7.00000000e-01   2.00000000e-01 
  1.00000000e-01   7.00000000e-01   3.00000000e-01 
  1.00000000e-01   7.00000000e-01   4.00000000e-01 
  1.00000000e-01   7.00000000e-01   5.00000000e-01 
  1.00000000e-01   7.00000000e-01   6.00000000e-01 
  1.00000000e-01   7.00000000e-01   7.00000000e-01 
  1.00000000e-01   7.00000000e-01   8.00000000e-01 
  1.00000000e-01   7.00000000e-01   9.00000000e-01 
  1.00000000e-01   8.00000000e-01   0.00000000e+00 
  1.00000000e-01   8.00000000e-01   1.00000000e-01 
  1.00000000e-01   8.00000000e-01   2.00000000e-01 
  1.00000000e-01   8.00000000e-01   3.00000000e-01 
  1.00000000e-01   8.00000000e-01   4.00000000e-01 
  1.00000000e-01   8.00000000e-01   5.00000000e-01 
  1.00000000e-01   8.00000000e-01   6.00000000e-01 
  1.00000000e-01   8.00000000e-01   7.00000000e-01 
  1.00000000e-01   8.00000000e-01   8.00000000e-01 
[...]
POINT_DATA   1000
FIELD solution 1
u 3   1000 DOUBLE
   -2.14200939e-04     9.83595537e-05     9.83119383e-05 
   -2.01175048e-04     1.00807456e-04     7.38918948e-05 
   -2.21633006e-04     9.42319602e-05     8.48333458e-05 
   -2.28660802e-04     8.93569356e-05     3.47122586e-05 
   -2.32909545e-04     8.56196758e-05     2.54160696e-05 
   -2.32912129e-04     8.56184284e-05    -2.54409781e-05 
   -2.28658654e-04     8.93568272e-05    -3.47369664e-05 
   -2.21635397e-04     9.42323471e-05    -8.48650156e-05 
   -2.01166347e-04     1.00807352e-04    -7.39175326e-05 
   -2.14116470e-04     9.83345516e-05    -9.83340930e-05 
   -2.08857458e-04     1.01961442e-04     9.33559886e-05 
   -2.12591470e-04     8.51498742e-05     8.37178679e-05 
   -2.27626419e-04     8.69636706e-05     7.40798574e-05 
   -2.36458293e-04     7.67743489e-05     4.21334766e-05 
   -2.40530842e-04     7.71636267e-05     1.82044099e-05 
   -2.40531480e-04     7.71733585e-05    -1.82175156e-05 
   -2.36459857e-04     7.67659957e-05    -4.21460329e-05 
   -2.27628948e-04     8.69734295e-05    -7.41029907e-05 
   -2.12588147e-04     8.51647294e-05    -8.37484784e-05 
   -2.08871030e-04     1.01992432e-04    -9.33624833e-05 
   -2.18993029e-04     6.89111732e-05     9.07728698e-05 
   -2.26607005e-04     7.06074439e-05     7.76868093e-05 
   -2.42099936e-04     6.81233070e-05     7.11512234e-05 
   -2.52172472e-04     6.64009448e-05     4.12808989e-05 
   -2.56797771e-04     6.46135458e-05     1.81292239e-05 
   -2.56798403e-04     6.46144161e-05    -1.81443041e-05 
   -2.52174102e-04     6.64007116e-05    -4.12946136e-05 
   -2.42097926e-04     6.81554899e-05    -7.11993260e-05 
   -2.26608544e-04     7.06156987e-05    -7.76966139e-05 
   -2.18998138e-04     6.89127183e-05    -9.07854126e-05 
   -2.27117215e-04     5.25555742e-05     8.71281973e-05 
   -2.35436350e-04     4.62874495e-05     7.84307895e-05 
   -2.51739631e-04     4.73159559e-05     6.58945638e-05 
   -2.62863240e-04     4.32428043e-05     4.25470403e-05 
   -2.68054520e-04     4.32132786e-05     1.47875221e-05 
   -2.68055085e-04     4.32200183e-05    -1.48016139e-05 
   -2.62862898e-04     4.32509185e-05    -4.25752033e-05 
   -2.51741184e-04     4.73241296e-05    -6.59076492e-05 
   -2.35438066e-04     4.62885430e-05    -7.84478717e-05 
   -2.27122911e-04     5.25736837e-05    -8.71395413e-05 
   -2.29745837e-04     8.60304551e-06     8.41014094e-05 
   -2.39145035e-04     1.36190388e-05     7.42900314e-05 
   -2.56017953e-04     1.13575434e-05     6.39422619e-05 
   -2.67870103e-04     1.34598001e-05     4.04212426e-05 
   -2.73445926e-04     1.24727425e-05     1.36867104e-05 
   -2.73445789e-04     1.24784193e-05    -1.37068176e-05 
   -2.67871242e-04     1.34618818e-05    -4.04367650e-05 
   -2.56018934e-04     1.13537441e-05    -6.39545901e-05 
   -2.39146041e-04     1.36190560e-05    -7.43034851e-05 
   -2.29749846e-04     8.59235894e-06    -8.41136913e-05 
   -2.29745837e-04    -8.60304551e-06     8.41014094e-05 
   -2.39145035e-04    -1.36190388e-05     7.42900314e-05 
   -2.56017953e-04    -1.13575434e-05     6.39422619e-05 
   -2.67870103e-04    -1.34598001e-05     4.04212426e-05 
   -2.73445926e-04    -1.24727425e-05     1.36867104e-05 
   -2.73445789e-04    -1.24784193e-05    -1.37068176e-05 
   -2.67871242e-04    -1.34618818e-05    -4.04367650e-05 
   -2.56018934e-04    -1.13537441e-05    -6.39545901e-05 
   -2.39146041e-04    -1.36190560e-05    -7.43034851e-05 
   -2.29749846e-04    -8.59235894e-06    -8.41136913e-05 
   -2.27117215e-04    -5.25555742e-05     8.71281973e-05 
   -2.35436350e-04    -4.62874495e-05     7.84307895e-05 
   -2.51739631e-04    -4.73159559e-05     6.58945638e-05 
   -2.62863240e-04    -4.32428043e-05     4.25470403e-05 
   -2.68054520e-04    -4.32132786e-05     1.47875221e-05 
   -2.68055085e-04    -4.32200183e-05    -1.48016139e-05 
   -2.62862898e-04    -4.32509185e-05    -4.25752033e-05 
   -2.51741184e-04    -4.73241296e-05    -6.59076492e-05 
   -2.35438066e-04    -4.62885430e-05    -7.84478717e-05 
   -2.27122911e-04    -5.25736837e-05    -8.71395413e-05 
   -2.18993029e-04    -6.89111732e-05     9.07728698e-05 
   -2.26607005e-04    -7.06074439e-05     7.76868093e-05 
   -2.42099936e-04    -6.81233070e-05     7.11512234e-05 
   -2.52172472e-04    -6.64009448e-05     4.12808989e-05 
   -2.56797771e-04    -6.46135458e-05     1.81292239e-05 
   -2.56798403e-04    -6.46144161e-05    -1.81443041e-05 
   -2.52174102e-04    -6.64007116e-05    -4.12946136e-05 
   -2.42097926e-04    -6.81554899e-05    -7.11993260e-05 
   -2.26608544e-04    -7.06156987e-05    -7.76966139e-05 
   -2.18998138e-04    -6.89127183e-05    -9.07854126e-05 
   -2.08857458e-04    -1.01961442e-04     9.33559886e-05 
   -2.12591470e-04    -8.51498742e-05     8.37178679e-05 
   -2.27626419e-04    -8.69636706e-05     7.40798574e-05 
   -2.36458293e-04    -7.67743489e-05     4.21334766e-05 
   -2.40530842e-04    -7.71636267e-05     1.82044099e-05 
   -2.40531480e-04    -7.71733585e-05    -1.82175156e-05 
   -2.36459857e-04    -7.67659957e-05    -4.21460329e-05 
   -2.27628948e-04    -8.69734295e-05    -7.41029907e-05 
   -2.12588147e-04    -8.51647294e-05    -8.37484784e-05 
   -2.08871030e-04    -1.01992432e-04    -9.33624833e-05 
   -2.14200939e-04    -9.83595537e-05     9.83119383e-05 
   -2.01175048e-04    -1.00807456e-04     7.38918948e-05 
   -2.21633006e-04    -9.42319602e-05     8.48333458e-05 
   -2.28660802e-04    -8.93569356e-05     3.47122586e-05 
   -2.32909545e-04    -8.56196758e-05     2.54160696e-05 
   -2.32912129e-04    -8.56184284e-05    -2.54409781e-05 
   -2.28658654e-04    -8.93568272e-05    -3.47369664e-05 
   -2.21635397e-04    -9.42323471e-05    -8.48650156e-05 
   -2.01166347e-04    -1.00807352e-04    -7.39175326e-05 
   -2.14116470e-04    -9.83345516e-05    -9.83340930e-05 
   -1.37675446e-04     9.77858720e-05     9.42456987e-05 
   -1.71866442e-04     1.01926310e-04     9.72459745e-05 
   -1.63675869e-04     9.60803780e-05     8.16962892e-05 
   -1.80230196e-04     9.20930943e-05     4.90487901e-05 
   -1.78453455e-04     8.85158564e-05     1.95344275e-05 
   -1.78438289e-04     8.85151403e-05    -1.95445956e-05 
   -1.80247604e-04     9.20933734e-05    -4.90593971e-05 
   -1.63663772e-04     9.60802351e-05    -8.17098894e-05 
   -1.71889022e-04     1.01923535e-04    -9.72553832e-05 
   -1.37628056e-04     9.77557270e-05    -9.42346094e-05 
   -1.49142018e-04     1.11634339e-04     9.66921849e-05 
   -1.72821845e-04     9.05002407e-05     1.04887853e-04 
   -1.75099932e-04     9.68209392e-05     7.37695168e-05 
   -1.90412198e-04     8.47984063e-05     5.52958300e-05 
   -1.91278644e-04     8.67107990e-05     1.46550764e-05 
   -1.91263716e-04     8.67281423e-05    -1.46593581e-05 
   -1.90429562e-04     8.47813926e-05    -5.53073456e-05 
   -1.75083349e-04     9.68386039e-05    -7.37698649e-05 
   -1.72851967e-04     9.04787414e-05    -1.04914399e-04 
   -1.49127073e-04     1.11657079e-04    -9.66932113e-05 
   -1.72217903e-04     7.33665478e-05     9.34890095e-05 
   -1.82769315e-04     8.00115840e-05     8.57454977e-05 
   -1.90800484e-04     7.36836280e-05     7.75164016e-05 
   -1.98286715e-04     7.70438326e-05     4.96250110e-05 
   -2.02562786e-04     7.38736743e-05     1.91717621e-05 
   -2.02554335e-04     7.38700555e-05    -1.91792864e-05 
   -1.98295173e-04     7.70472964e-05    -4.96336997e-05 
   -1.90792583e-04     7.36784297e-05    -7.75243692e-05 
   -1.82778514e-04     8.00190297e-05    -8.57504095e-05 
   -1.72224272e-04     7.33546262e-05    -9.34960435e-05 
   -1.72046413e-04     5.83621027e-05     9.05908409e-05 
   -1.84644004e-04     5.09190236e-05     8.96158036e-05 
   -1.97508497e-04     5.42363678e-05     7.45866821e-05 
   -2.06907325e-04     4.99707611e-05     5.11901538e-05 
   -2.12909329e-04     5.02843302e-05     1.64471454e-05 
   -2.12903020e-04     5.02925051e-05    -1.64535923e-05 
   -2.06917628e-04     4.99682708e-05    -5.12038007e-05 
   -1.97503089e-04     5.42484499e-05    -7.45903469e-05 
   -1.84647104e-04     5.09168453e-05    -8.96352782e-05 
   -1.72041112e-04     5.83807077e-05    -9.05986147e-05 
   -1.79159531e-04     1.05205361e-05     8.76872255e-05 
   -1.91089167e-04     1.75917993e-05     8.30089616e-05 
   -2.03735234e-04     1.34931689e-05     7.42060000e-05 
   -2.11517528e-04     1.73035130e-05     4.82316385e-05 
   -2.19211274e-04     1.52701079e-05     1.61586490e-05 
   -2.19203500e-04     1.52660892e-05    -1.61670594e-05 
   -2.11522568e-04     1.73066298e-05    -4.82406314e-05 
   -2.03732706e-04     1.34843054e-05    -7.42111893e-05 
   -1.91095400e-04     1.75936535e-05    -8.30193534e-05 
   -1.79160622e-04     1.05060981e-05    -8.76956075e-05 
   -1.79159531e-04    -1.05205361e-05     8.76872255e-05 
   -1.91089167e-04    -1.75917993e-05     8.30089616e-05 
   -2.03735234e-04    -1.34931689e-05     7.42060000e-05 
   -2.11517528e-04    -1.73035130e-05     4.82316385e-05 
   -2.19211274e-04    -1.52701079e-05     1.61586490e-05 
   -2.19203500e-04    -1.52660892e-05    -1.61670594e-05 
   -2.11522568e-04    -1.73066298e-05    -4.82406314e-05 
   -2.03732706e-04    -1.34843054e-05    -7.42111893e-05 
   -1.91095400e-04    -1.75936535e-05    -8.30193534e-05 
   -1.79160622e-04    -1.05060981e-05    -8.76956075e-05 
   -1.72046413e-04    -5.83621027e-05     9.05908409e-05 
   -1.84644004e-04    -5.09190236e-05     8.96158036e-05 
   -1.97508497e-04    -5.42363678e-05     7.45866821e-05 
   -2.06907325e-04    -4.99707611e-05     5.11901538e-05 
   -2.12909329e-04    -5.02843302e-05     1.64471454e-05 
   -2.12903020e-04    -5.02925051e-05    -1.64535923e-05 
   -2.06917628e-04    -4.99682708e-05    -5.12038007e-05 
   -1.97503089e-04    -5.42484499e-05    -7.45903469e-05 
   -1.84647104e-04    -5.09168453e-05    -8.96352782e-05 
   -1.72041112e-04    -5.83807077e-05    -9.05986147e-05 
   -1.72217903e-04    -7.33665478e-05     9.34890095e-05 
   -1.82769315e-04    -8.00115840e-05     8.57454977e-05 
   -1.90800484e-04    -7.36836280e-05     7.75164016e-05 
   -1.98286715e-04    -7.70438326e-05     4.96250110e-05 
   -2.02562786e-04    -7.38736743e-05     1.91717621e-05 
   -2.02554335e-04    -7.38700555e-05    -1.91792864e-05 
   -1.98295173e-04    -7.70472964e-05    -4.96336997e-05 
   -1.90792583e-04    -7.36784297e-05    -7.75243692e-05 
   -1.82778514e-04    -8.00190297e-05    -8.57504095e-05 
   -1.72224272e-04    -7.33546262e-05    -9.34960435e-05 
   -1.49142018e-04    -1.11634339e-04     9.66921849e-05 
   -1.72821845e-04    -9.05002407e-05     1.04887853e-04 
   -1.75099932e-04    -9.68209392e-05     7.37695168e-05 
   -1.90412198e-04    -8.47984063e-05     5.52958300e-05 
   -1.91278644e-04    -8.67107990e-05     1.46550764e-05 
   -1.91263716e-04    -8.67281423e-05    -1.46593581e-05 
   -1.90429562e-04    -8.47813926e-05    -5.53073456e-05 
   -1.75083349e-04    -9.68386039e-05    -7.37698649e-05 
   -1.72851967e-04    -9.04787414e-05    -1.04914399e-04 
   -1.49127073e-04    -1.11657079e-04    -9.66932113e-05 
   -1.37675446e-04    -9.77858720e-05     9.42456987e-05 
   -1.71866442e-04    -1.01926310e-04     9.72459745e-05 
   -1.63675869e-04    -9.60803780e-05     8.16962892e-05 
   -1.80230196e-04    -9.20930943e-05     4.90487901e-05 
   -1.78453455e-04    -8.85158564e-05     1.95344275e-05 
   -1.78438289e-04    -8.85151403e-05    -1.95445956e-05 
   -1.80247604e-04    -9.20933734e-05    -4.90593971e-05 
   -1.63663772e-04    -9.60802351e-05    -8.17098894e-05 
   -1.71889022e-04    -1.01923535e-04    -9.72553832e-05 
   -1.37628056e-04    -9.77557270e-05    -9.42346094e-05 
   -1.25335824e-04     1.18883076e-04     1.13523863e-04 
   -1.19353219e-04     1.13091299e-04     9.60195074e-05 
   -1.32401135e-04     1.09152511e-04     8.57411241e-05 
   -1.34135609e-04     1.04622891e-04     5.06664553e-05 
   -1.39432672e-04     1.01274504e-04     2.45814345e-05 
   -1.39432797e-04     1.01273620e-04    -2.45924276e-05 
   -1.34134085e-04     1.04623202e-04    -5.06735073e-05 
   -1.32400970e-04     1.09150470e-04    -8.57562008e-05 
   -1.19346910e-04     1.13092427e-04    -9.60236972e-05 
   -1.25326898e-04     1.18879005e-04    -1.13533830e-04 
   -1.30294764e-04     1.00970627e-04     1.08998725e-04 
   -1.26343642e-04     1.01490094e-04     9.58011572e-05 
   -1.37317266e-04     9.76865398e-05     8.28249995e-05 
   -1.38119756e-04     9.45227205e-05     5.26164637e-05 
   -1.44097996e-04     9.37254150e-05     2.28331149e-05 
   -1.44100133e-04     9.37344873e-05    -2.28387850e-05 
   -1.38116463e-04     9.45121974e-05    -5.26202815e-05 
   -1.37325591e-04     9.76927928e-05    -8.28280567e-05 
   -1.26347933e-04     1.01482966e-04    -9.58010720e-05 
   -1.30308483e-04     1.00967883e-04    -1.09002912e-04 
   -1.29659345e-04     8.25975352e-05     1.07125456e-04 
   -1.31370690e-04     8.29673645e-05     9.45856266e-05 
   -1.40188128e-04     8.03484432e-05     8.27731456e-05 
   -1.44561824e-04     7.98487895e-05     5.29211478e-05 
   -1.50479007e-04     7.78162505e-05     2.23392758e-05 
   -1.50479093e-04     7.78144071e-05    -2.23475079e-05 
   -1.44559580e-04     7.98509037e-05    -5.29265433e-05 
   -1.40195227e-04     8.03437215e-05    -8.27784830e-05 
   -1.31367394e-04     8.29709828e-05    -9.45879868e-05 
   -1.29659282e-04     8.25966990e-05    -1.07129062e-04 
   -1.33148945e-04     5.75264659e-05     1.03781414e-04 
   -1.38793955e-04     5.51148990e-05     9.56838388e-05 
   -1.45111188e-04     5.56619616e-05     7.84667020e-05 
   -1.52705424e-04     5.37891382e-05     5.41577647e-05 
   -1.57873881e-04     5.44963195e-05     1.95874470e-05 
   -1.57874019e-04     5.45018709e-05    -1.95945287e-05 
   -1.52703904e-04     5.37860714e-05    -5.41684386e-05 
   -1.45111793e-04     5.56666076e-05    -7.84712732e-05 
   -1.38791762e-04     5.51127657e-05    -9.56920999e-05 
   -1.33148552e-04     5.75325311e-05    -1.03788347e-04 
   -1.37824393e-04     1.71357043e-05     1.01000566e-04 
   -1.43217095e-04     1.93093696e-05     9.26351646e-05 
   -1.49874286e-04     1.77845200e-05     7.79583682e-05 
   -1.57635368e-04     1.94051034e-05     5.34197774e-05 
   -1.63127406e-04     1.86683378e-05     1.87941273e-05 
   -1.63128866e-04     1.86676331e-05    -1.88020296e-05 
   -1.57634868e-04     1.94080089e-05    -5.34286952e-05 
   -1.49874593e-04     1.77811536e-05    -7.79636477e-05 
   -1.43216758e-04     1.93113390e-05    -9.26415144e-05 
   -1.37825357e-04     1.71312925e-05    -1.01007695e-04 
   -1.37824393e-04    -1.71357043e-05     1.01000566e-04 
   -1.43217095e-04    -1.93093696e-05     9.26351646e-05 
   -1.49874286e-04    -1.77845200e-05     7.79583682e-05 
   -1.57635368e-04    -1.94051034e-05     5.34197774e-05 
   -1.63127406e-04    -1.86683378e-05     1.87941273e-05 
   -1.63128866e-04    -1.86676331e-05    -1.88020296e-05 
   -1.57634868e-04    -1.94080089e-05    -5.34286952e-05 
   -1.49874593e-04    -1.77811536e-05    -7.79636477e-05 
   -1.43216758e-04    -1.93113390e-05    -9.26415144e-05 
   -1.37825357e-04    -1.71312925e-05    -1.01007695e-04 
   -1.33148945e-04    -5.75264659e-05     1.03781414e-04 
   -1.38793955e-04    -5.51148990e-05     9.56838388e-05 
   -1.45111188e-04    -5.56619616e-05     7.84667020e-05 
   -1.52705424e-04    -5.37891382e-05     5.41577647e-05 
   -1.57873881e-04    -5.44963195e-05     1.95874470e-05 
   -1.57874019e-04    -5.45018709e-05    -1.95945287e-05 
   -1.52703904e-04    -5.37860714e-05    -5.41684386e-05 
   -1.45111793e-04    -5.56666076e-05    -7.84712732e-05 
   -1.38791762e-04    -5.51127657e-05    -9.56920999e-05 
   -1.33148552e-04    -5.75325311e-05    -1.03788347e-04 
   -1.29659345e-04    -8.25975352e-05     1.07125456e-04 
   -1.31370690e-04    -8.29673645e-05     9.45856266e-05 
   -1.40188128e-04    -8.03484432e-05     8.27731456e-05 
   -1.44561824e-04    -7.98487895e-05     5.29211478e-05 
   -1.50479007e-04    -7.78162505e-05     2.23392758e-05 
   -1.50479093e-04    -7.78144071e-05    -2.23475079e-05 
   -1.44559580e-04    -7.98509037e-05    -5.29265433e-05 
   -1.40195227e-04    -8.03437215e-05    -8.27784830e-05 
   -1.31367394e-04    -8.29709828e-05    -9.45879868e-05 
   -1.29659282e-04    -8.25966990e-05    -1.07129062e-04 
   -1.30294764e-04    -1.00970627e-04     1.08998725e-04 
   -1.26343642e-04    -1.01490094e-04     9.58011572e-05 
   -1.37317266e-04    -9.76865398e-05     8.28249995e-05 
   -1.38119756e-04    -9.45227205e-05     5.26164637e-05 
   -1.44097996e-04    -9.37254150e-05     2.28331149e-05 
   -1.44100133e-04    -9.37344873e-05    -2.28387850e-05 
   -1.38116463e-04    -9.45121974e-05    -5.26202815e-05 
   -1.37325591e-04    -9.76927928e-05    -8.28280567e-05 
   -1.26347933e-04    -1.01482966e-04    -9.58010720e-05 
   -1.30308483e-04    -1.00967883e-04    -1.09002912e-04 
   -1.25335824e-04    -1.18883076e-04     1.13523863e-04 
   -1.19353219e-04    -1.13091299e-04     9.60195074e-05 
   -1.32401135e-04    -1.09152511e-04     8.57411241e-05 
   -1.34135609e-04    -1.04622891e-04     5.06664553e-05 
   -1.39432672e-04    -1.01274504e-04     2.45814345e-05 
   -1.39432797e-04    -1.01273620e-04    -2.45924276e-05 
   -1.34134085e-04    -1.04623202e-04    -5.06735073e-05 
   -1.32400970e-04    -1.09150470e-04    -8.57562008e-05 
   -1.19346910e-04    -1.13092427e-04    -9.60236972e-05 
   -1.25326898e-04    -1.18879005e-04    -1.13533830e-04 
   -6.41537468e-05     1.23612005e-04     1.18975948e-04 
   -8.06465782e-05     1.18874401e-04     1.07301998e-04 
   -7.84790752e-05     1.13645299e-04     8.58615771e-05 
   -8.70089710e-05     1.10837618e-04     5.80187389e-05 
   -8.69278140e-05     1.06824538e-04     2.06700117e-05 
   -8.69203331e-05     1.06824224e-04    -2.06811834e-05 
   -8.70173148e-05     1.10837074e-04    -5.80319229e-05 
   -7.84737265e-05     1.13644216e-04    -8.58717561e-05 
   -8.06556330e-05     1.18873557e-04    -1.07320719e-04 
   -6.41371800e-05     1.23603088e-04    -1.18981739e-04 
   -6.92400962e-05     1.12406762e-04     1.16356309e-04 
   -8.10355805e-05     1.06525994e-04     1.06028452e-04 
   -8.14049392e-05     1.01471394e-04     8.37359504e-05 
   -8.84256213e-05     9.96304930e-05     5.87209997e-05 
   -8.95270205e-05     9.63572245e-05     1.97663977e-05 
   -8.95213374e-05     9.63639400e-05    -1.97719248e-05 
   -8.84311553e-05     9.96252490e-05    -5.87317359e-05 
   -8.14012674e-05     1.01478120e-04    -8.37365347e-05 
   -8.10471487e-05     1.06523665e-04    -1.06047758e-04 
   -6.92340811e-05     1.12421676e-04    -1.16362240e-04 
   -7.92312996e-05     8.75743744e-05     1.12187255e-04 
   -8.54423370e-05     8.46282138e-05     1.02351732e-04 
   -8.99972315e-05     8.40346364e-05     8.33290280e-05 
   -9.54571933e-05     8.21991579e-05     5.74008166e-05 
   -9.62352052e-05     8.06975614e-05     1.94974545e-05 
   -9.62306242e-05     8.06963712e-05    -1.95042772e-05 
   -9.54633395e-05     8.22004208e-05    -5.74099111e-05 
   -8.99966991e-05     8.40300397e-05    -8.33305206e-05 
   -8.54492203e-05     8.46271554e-05    -1.02365754e-04 
   -7.92295719e-05     8.75742505e-05    -1.12193169e-04 
   -8.32720299e-05     6.03165792e-05     1.10455839e-04 
   -8.94792713e-05     5.59729505e-05     9.81592606e-05 
   -9.39756992e-05     5.74902600e-05     8.15998247e-05 
   -1.00438676e-04     5.62632757e-05     5.64403952e-05 
   -1.01741920e-04     5.57262382e-05     1.98577657e-05 
   -1.01738712e-04     5.57309252e-05    -1.98648629e-05 
   -1.00445885e-04     5.62604226e-05    -5.64517865e-05 
   -9.39738222e-05     5.74963811e-05    -8.16065305e-05 
   -8.94846024e-05     5.59712775e-05    -9.81721792e-05 
   -8.32708103e-05     6.03261435e-05    -1.10462268e-04 
   -8.79764239e-05     1.71461152e-05     1.06824631e-04 
   -9.03289521e-05     1.99083047e-05     9.47396505e-05 
   -9.71981497e-05     1.83444809e-05     8.09905211e-05 