# vtk DataFile Version 2.0 
generated by Lattice Boltzmann Method time =   1.09696551e+00
ASCII 
DATASET UNSTRUCTURED_GRID

POINTS   1000 FLOAT 
  0.00000000e+00   0.00000000e+00   0.00000000e+00 
  0.00000000e+00   0.00000000e+00   1.00000000e-01 
  0.00000000e+00   0.00000000e+00   2.00000000e-01 
  0.00000000e+00   0.00000000e+00   3.00000000e-01 
  0.00000000e+00   0.00000000e+00   4.00000000e-01 
  0.00000000e+00   0.00000000e+00   5.00000000e-01 
  0.00000000e+00   0.00000000e+00   6.00000000e-01 
  0.00000000e+00   0.00000000e+00   7.00000000e-01 
  0.00000000e+00   0.00000000e+00   8.00000000e-01 
  0.00000000e+00   0.00000000e+00   9.00000000e-01 
  0.00000000e+00   1.00000000e-01   0.00000000e+00 
  0.00000000e+00   1.00000000e-01   1.00000000e-01 
  0.00000000e+00   1.00000000e-01   2.00000000e-01 
  0.00000000e+00   1.00000000e-01   3.00000000e-01 
  0.00000000e+00   1.00000000e-01   4.00000000e-01 
  0.00000000e+00   1.00000000e-01   5.00000000e-01 
  0.00000000e+00   1.00000000e-01   6.00000000e-01 
  0.00000000e+00   1.00000000e-01   7.00000000e-01 
  0.00000000e+00   1.00000000e-01   8.00000000e-01 
  0.00000000e+00   1.00000000e-01   9.00000000e-01 
  0.00000000e+00   2.00000000e-01   0.00000000e+00 
  0.00000000e+00   2.00000000e-01   1.00000000e-01 
  0.00000000e+00   2.00000000e-01   2.00000000e-01 
  0.00000000e+00   2.00000000e-01   3.00000000e-01 
  0.00000000e+00   2.00000000e-01   4.00000000e-01 
  0.00000000e+00   2.00000000e-01   5.00000000e-01 
  0.00000000e+00   2.00000000e-01   6.00000000e-01 
  0.00000000e+00   2.00000000e-01   7.00000000e-01 
  0.00000000e+00   2.00000000e-01   8.00000000e-01 
  0.00000000e+00   2.00000000e-01   9.00000000e-01 
  0.00000000e+00   3.00000000e-01   0.00000000e+00 
  0.00000000e+00   3.00000000e-01   1.00000000e-01 
  0.00000000e+00   3.00000000e-01   2.00000000e-01 
  0.00000000e+00   3.00000000e-01   3.00000000e-01 
  0.00000000e+00   3.00000000e-01   4.00000000e-01 
  0.00000000e+00   3.00000000e-01   5.00000000e-01 
  0.00000000e+00   3.00000000e-01   6.00000000e-01 
  0.00000000e+00   3.00000000e-01   7.00000000e-01 
  0.00000000e+00   3.00000000e-01   8.00000000e-01 
  0.00000000e+00   3.00000000e-01   9.00000000e-01 
  0.00000000e+00   4.00000000e-01   0.00000000e+00 
  0.00000000e+00   4.00000000e-01   1.00000000e-01 
  0.00000000e+00   4.00000000e-01   2.00000000e-01 
  0.00000000e+00   4.00000000e-01   3.00000000e-01 
  0.00000000e+00   4.00000000e-01   4.00000000e-01 
  0.00000000e+00   4.00000000e-01   5.00000000e-01 
  0.00000000e+00   4.00000000e-01   6.00000000e-01 
  0.00000000e+00   4.00000000e-01   7.00000000e-01 
  0.00000000e+00   4.00000000e-01   8.00000000e-01 
  0.00000000e+00   4.00000000e-01   9.00000000e-01 
  0.00000000e+00   5.00000000e-01   0.00000000e+00 
  0.00000000e+00   5.00000000e-01   1.00000000e-01 
  0.00000000e+00   5.00000000e-01   2.00000000e-01 
  0.00000000e+00   5.00000000e-01   3.00000000e-01 
  0.00000000e+00   5.00000000e-01   4.00000000e-01 
  0.00000000e+00   5.00000000e-01   5.00000000e-01 
  0.00000000e+00   5.00000000e-01   6.00000000e-01 
  0.00000000e+00   5.00000000e-01   7.00000000e-01 
  0.00000000e+00   5.00000000e-01   8.00000000e-01 
  0.00000000e+00   5.00000000e-01   9.00000000e-01 
  0.00000000e+00   6.00000000e-01   0.00000000e+00 
  0.00000000e+00   6.00000000e-01   1.00000000e-01 
  0.00000000e+00   6.00000000e-01   2.00000000e-01 
  0.00000000e+00   6.00000000e-01   3.00000000e-01 
  0.00000000e+00   6.00000000e-01   4.00000000e-01 
  0.00000000e+00   6.00000000e-01   5.00000000e-01 
  0.00000000e+00   6.00000000e-01   6.00000000e-01 
  0.00000000e+00   6.00000000e-01   7.00000000e-01 
  0.00000000e+00   6.00000000e-01   8.00000000e-01 
  0.00000000e+00   6.00000000e-01   9.00000000e-01 
  0.00000000e+00   7.00000000e-01   0.00000000e+00 
  0.00000000e+00   7.00000000e-01   1.00000000e-01 
  0.00000000e+00   7.00000000e-01   2.00000000e-01 
  0.00000000e+00   7.00000000e-01   3.00000000e-01 
  0.00000000e+00   7.00000000e-01   4.00000000e-01 
  0.00000000e+00   7.00000000e-01   5.00000000e-01 
  0.00000000e+00   7.00000000e-01   6.00000000e-01 
  0.00000000e+00   7.00000000e-01   7.00000000e-01 
  0.00000000e+00   7.00000000e-01   8.00000000e-01 
  0.00000000e+00   7.00000000e-01   9.00000000e-01 
  0.00000000e+00   8.00000000e-01   0.00000000e+00 
  0.00000000e+00   8.00000000e-01   1.00000000e-01 
  0.00000000e+00   8.00000000e-01   2.00000000e-01 
  0.00000000e+00   8.00000000e-01   3.00000000e-01 
  0.00000000e+00   8.00000000e-01   4.00000000e-01 
  0.00000000e+00   8.00000000e-01   5.00000000e-01 
  0.00000000e+00   8.00000000e-01   6.00000000e-01 
  0.00000000e+00   8.00000000e-01   7.00000000e-01 
  0.00000000e+00   8.00000000e-01   8.00000000e-01 
  0.00000000e+00   8.00000000e-01   9.00000000e-01 
  0.00000000e+00   9.00000000e-01   0.00000000e+00 
  0.00000000e+00   9.00000000e-01   1.00000000e-01 
  0.00000000e+00   9.00000000e-01   2.00000000e-01 
  0.00000000e+00   9.00000000e-01   3.00000000e-01 
  0.00000000e+00   9.00000000e-01   4.00000000e-01 
  0.00000000e+00   9.00000000e-01   5.00000000e-01 
  0.00000000e+00   9.00000000e-01   6.00000000e-01 
  0.00000000e+00   9.00000000e-01   7.00000000e-01 
  0.00000000e+00   9.00000000e-01   8.00000000e-01 
  0.00000000e+00   9.00000000e-01   9.00000000e-01 
  1.00000000e-01   0.00000000e+00   0.00000000e+00 
  1.00000000e-01   0.00000000e+00   1.00000000e-01 
  1.00000000e-01   0.00000000e+00   2.00000000e-01 
  1.00000000e-01   0.00000000e+00   3.00000000e-01 
  1.00000000e-01   0.00000000e+00   4.00000000e-01 
  1.00000000e-01   0.00000000e+00   5.00000000e-01 
  1.00000000e-01   0.00000000e+00   6.00000000e-01 
  1.00000000e-01   0.00000000e+00   7.00000000e-01 
  1.00000000e-01   0.00000000e+00   8.00000000e-01 
  1.00000000e-01   0.00000000e+00   9.00000000e-01 
  1.00000000e-01   1.00000000e-01   0.00000000e+00 
  1.00000000e-01   1.00000000e-01   1.00000000e-01 
  1.00000000e-01   1.00000000e-01   2.00000000e-01 
  1.00000000e-01   1.00000000e-01   3.00000000e-01 
  1.00000000e-01   1.00000000e-01   4.00000000e-01 
  1.00000000e-01   1.00000000e-01   5.00000000e-01 
  1.00000000e-01   1.00000000e-01   6.00000000e-01 
  1.00000000e-01   1.00000000e-01   7.00000000e-01 
  1.00000000e-01   1.00000000e-01   8.00000000e-01 
  1.00000000e-01   1.00000000e-01   9.00000000e-01 
  1.00000000e-01   2.00000000e-01   0.00000000e+00 
  1.00000000e-01   2.00000000e-01   1.00000000e-01 
  1.00000000e-01   2.00000000e-01   2.00000000e-01 
  1.00000000e-01   2.00000000e-01   3.00000000e-01 
  1.00000000e-01   2.00000000e-01   4.00000000e-01 
  1.00000000e-01   2.00000000e-01   5.00000000e-01 
  1.00000000e-01   2.00000000e-01   6.00000000e-01 
  1.00000000e-01   2.00000000e-01   7.00000000e-01 
  1.00000000e-01   2.00000000e-01   8.00000000e-01 
  1.00000000e-01   2.00000000e-01   9.00000000e-01 
  1.00000000e-01   3.00000000e-01   0.00000000e+00 
  1.00000000e-01   3.00000000e-01   1.00000000e-01 
  1.00000000e-01   3.00000000e-01   2.00000000e-01 
  1.00000000e-01   3.00000000e-01   3.00000000e-01 
  1.00000000e-01   3.00000000e-01   4.00000000e-01 
  1.00000000e-01   3.00000000e-01   5.00000000e-01 
  1.00000000e-01   3.00000000e-01   6.00000000e-01 
  1.00000000e-01   3.00000000e-01   7.00000000e-01 
  1.00000000e-01   3.00000000e-01   8.00000000e-01 
  1.00000000e-01   3.00000000e-01   9.00000000e-01 
  1.00000000e-01   4.00000000e-01   0.00000000e+00 
  1.00000000e-01   4.00000000e-01   1.00000000e-01 
  1.00000000e-01   4.00000000e-01   2.00000000e-01 
  1.00000000e-01   4.00000000e-01   3.00000000e-01 
  1.00000000e-01   4.00000000e-01   4.00000000e-01 
  1.00000000e-01   4.00000000e-01   5.00000000e-01 
  1.00000000e-01   4.00000000e-01   6.00000000e-01 
  1.00000000e-01   4.00000000e-01   7.00000000e-01 
  1.00000000e-01   4.00000000e-01   8.00000000e-01 
  1.00000000e-01   4.00000000e-01   9.00000000e-01 
  1.00000000e-01   5.00000000e-01   0.00000000e+00 
  1.00000000e-01   5.00000000e-01   1.00000000e-01 
  1.00000000e-01   5.00000000e-01   2.00000000e-01 
  1.00000000e-01   5.00000000e-01   3.00000000e-01 
  1.00000000e-01   5.00000000e-01   4.00000000e-01 
  1.00000000e-01   5.00000000e-01   5.00000000e-01 
  1.00000000e-01   5.00000000e-01   6.00000000e-01 
  1.00000000e-01   5.00000000e-01   7.00000000e-01 
  1.00000000e-01   5.00000000e-01   8.00000000e-01 
  1.00000000e-01   5.00000000e-01   9.00000000e-01 
  1.00000000e-01   6.00000000e-01   0.00000000e+00 
  1.00000000e-01   6.00000000e-01   1.00000000e-01 
  1.00000000e-01   6.00000000e-01   2.00000000e-01 
  1.00000000e-01   6.00000000e-01   3.00000000e-01 
  1.00000000e-01   6.00000000e-01   4.00000000e-01 
  1.00000000e-01   6.00000000e-01   5.00000000e-01 
  1.00000000e-01   6.00000000e-01   6.00000000e-01 
  1.00000000e-01   6.00000000e-01   7.00000000e-01 
  1.00000000e-01   6.00000000e-01   8.00000000e-01 
  1.00000000e-01   6.00000000e-01   9.00000000e-01 
  1.00000000e-01   7.00000000e-01   0.00000000e+00 
  1.00000000e-01   7.00000000e-01   1.00000000e-01 
  1.00000000e-01   7.00000000e-01   2.00000000e-01 
  1.00000000e-01   7.00000000e-01   3.00000000e-01 
  1.00000000e-01   7.00000000e-01   4.00000000e-01 
  1.00000000e-01   7.00000000e-01   5.00000000e-01 
  1.00000000e-01   7.00000000e-01   6.00000000e-01 
  1.00000000e-01   7.00000000e-01   7.00000000e-01 
  1.00000000e-01   7.00000000e-01   8.00000000e-01 
  1.00000000e-01   7.00000000e-01   9.00000000e-01 
  1.00000000e-01   8.00000000e-01   0.00000000e+00 
  1.00000000e-01   8.00000000e-01   1.00000000e-01 
  1.00000000e-01   8.00000000e-01   2.00000000e-01 
  1.00000000e-01   8.00000000e-01   3.00000000e-01 
  1.00000000e-01   8.00000000e-01   4.00000000e-01 
  1.00000000e-01   8.00000000e-01   5.00000000e-01 
  1.00000000e-01   8.00000000e-01   6.00000000e-01 
  1.00000000e-01   8.00000000e-01   7.00000000e-01 
  1.00000000e-01   8.00000000e-01   8.00000000e-01 
[...]
POINT_DATA   1000
FIELD solution 1
u 3   1000 DOUBLE
   -7.25905776e-05     4.03322019e-05     4.41197360e-05 
   -8.35087967e-05     4.00641019e-05     2.71147693e-05 
   -9.15302758e-05     3.81990429e-05     1.09848078e-05 
   -9.79422082e-05     3.62370558e-05     7.39166657e-06 
   -9.98107904e-05     3.60004026e-05     9.81431060e-07 
   -9.98117728e-05     3.60017410e-05    -9.91226509e-07 
   -9.79444622e-05     3.62353114e-05    -7.40354341e-06 
   -9.15345077e-05     3.81999115e-05    -1.09955728e-05 
   -8.35161356e-05     4.00605163e-05    -2.71304072e-05 
   -7.24643960e-05     4.02803718e-05    -4.41173892e-05 
   -8.10456800e-05     2.57842331e-05     4.01483584e-05 
   -8.99410983e-05     2.32215468e-05     2.27032476e-05 
   -9.91991755e-05     2.06623028e-05     1.16345659e-05 
   -1.05974010e-04     1.79770828e-05     7.07659607e-06 
   -1.07895563e-04     1.64709751e-05     1.91548846e-06 
   -1.07896258e-04     1.64696875e-05    -1.92856757e-06 
   -1.05976638e-04     1.79776920e-05    -7.08890899e-06 
   -9.92030723e-05     2.06593909e-05    -1.16477437e-05 
   -8.99398048e-05     2.32523569e-05    -2.27437249e-05 
   -8.10537112e-05     2.57869053e-05    -4.01514917e-05 
   -9.01818279e-05     1.19149143e-05     3.77481760e-05 
   -9.90452276e-05     1.15592324e-05     2.08220219e-05 
   -1.08934816e-04     9.04895171e-06     8.78687439e-06 
   -1.16835332e-04     5.86456986e-06     4.81528077e-06 
   -1.19120958e-04     4.08612198e-06     4.98353373e-07 
   -1.19121742e-04     4.08679754e-06    -5.11693230e-07 
   -1.16836998e-04     5.86324655e-06    -4.82951452e-06 
   -1.08934331e-04     9.07588159e-06    -8.82578134e-06 
   -9.90496682e-05     1.15611589e-05    -2.08310140e-05 
   -9.01869471e-05     1.19149819e-05    -3.77560768e-05 
   -9.69492497e-05     5.22273598e-06     3.56142447e-05 
   -1.05726646e-04     6.24344179e-06     1.70639492e-05 
   -1.16761024e-04     4.31665599e-06     5.68925353e-06 
   -1.25666825e-04     2.73179198e-06     2.74881305e-06 
   -1.29016122e-04     4.97777733e-07     3.17424333e-07 
   -1.29016557e-04     4.97025870e-07    -3.28734953e-07 
   -1.25666316e-04     2.75673368e-06    -2.78350408e-06 
   -1.16762941e-04     4.31885147e-06    -5.69964501e-06 
   -1.05730058e-04     6.24549790e-06    -1.70752141e-05 
   -9.69525647e-05     5.22588142e-06    -3.56220015e-05 
   -9.87239012e-05     1.67142003e-06     3.53079901e-05 
   -1.07641175e-04     1.81360828e-06     1.58490954e-05 
   -1.18964932e-04     9.44757898e-07     3.66376856e-06 
   -1.28927118e-04     4.39101981e-07     8.37561809e-07 
   -1.31758135e-04    -3.01921094e-07    -2.13251414e-07 
   -1.31757933e-04    -2.79613075e-07     1.81744523e-07 
   -1.28927772e-04     4.40038271e-07    -8.46219152e-07 
   -1.18966370e-04     9.45333504e-07    -3.67587681e-06 
   -1.07643614e-04     1.81576117e-06    -1.58616787e-05 
   -9.87260861e-05     1.67270064e-06    -3.53172516e-05 
   -9.87239012e-05    -1.67142003e-06     3.53079901e-05 
   -1.07641175e-04    -1.81360828e-06     1.58490954e-05 
   -1.18964932e-04    -9.44757898e-07     3.66376856e-06 
   -1.28927118e-04    -4.39101981e-07     8.37561809e-07 
   -1.31758135e-04     3.01921094e-07    -2.13251414e-07 
   -1.31757933e-04     2.79613075e-07     1.81744523e-07 
   -1.28927772e-04    -4.40038271e-07    -8.46219152e-07 
   -1.18966370e-04    -9.45333504e-07    -3.67587681e-06 
   -1.07643614e-04    -1.81576117e-06    -1.58616787e-05 
   -9.87260861e-05    -1.67270064e-06    -3.53172516e-05 
   -9.69492497e-05    -5.22273598e-06     3.56142447e-05 
   -1.05726646e-04    -6.24344179e-06     1.70639492e-05 
   -1.16761024e-04    -4.31665599e-06     5.68925353e-06 
   -1.25666825e-04    -2.73179198e-06     2.74881305e-06 
   -1.29016122e-04    -4.97777733e-07     3.17424333e-07 
   -1.29016557e-04    -4.97025870e-07    -3.28734953e-07 
   -1.25666316e-04    -2.75673368e-06    -2.78350408e-06 
   -1.16762941e-04    -4.31885147e-06    -5.69964501e-06 
   -1.05730058e-04    -6.24549790e-06    -1.70752141e-05 
   -9.69525647e-05    -5.22588142e-06    -3.56220015e-05 
   -9.01818279e-05    -1.19149143e-05     3.77481760e-05 
   -9.90452276e-05    -1.15592324e-05     2.08220219e-05 
   -1.08934816e-04    -9.04895171e-06     8.78687439e-06 
   -1.16835332e-04    -5.86456986e-06     4.81528077e-06 
   -1.19120958e-04    -4.08612198e-06     4.98353373e-07 
   -1.19121742e-04    -4.08679754e-06    -5.11693230e-07 
   -1.16836998e-04    -5.86324655e-06    -4.82951452e-06 
   -1.08934331e-04    -9.07588159e-06    -8.82578134e-06 
   -9.90496682e-05    -1.15611589e-05    -2.08310140e-05 
   -9.01869471e-05    -1.19149819e-05    -3.77560768e-05 
   -8.10456800e-05    -2.57842331e-05     4.01483584e-05 
   -8.99410983e-05    -2.32215468e-05     2.27032476e-05 
   -9.91991755e-05    -2.06623028e-05     1.16345659e-05 
   -1.05974010e-04    -1.79770828e-05     7.07659607e-06 
   -1.07895563e-04    -1.64709751e-05     1.91548846e-06 
   -1.07896258e-04    -1.64696875e-05    -1.92856757e-06 
   -1.05976638e-04    -1.79776920e-05    -7.08890899e-06 
   -9.92030723e-05    -2.06593909e-05    -1.16477437e-05 
   -8.99398048e-05    -2.32523569e-05    -2.27437249e-05 
   -8.10537112e-05    -2.57869053e-05    -4.01514917e-05 
   -7.25905776e-05    -4.03322019e-05     4.41197360e-05 
   -8.35087967e-05    -4.00641019e-05     2.71147693e-05 
   -9.15302758e-05    -3.81990429e-05     1.09848078e-05 
   -9.79422082e-05    -3.62370558e-05     7.39166657e-06 
   -9.98107904e-05    -3.60004026e-05     9.81431059e-07 
   -9.98117728e-05    -3.60017410e-05    -9.91226509e-07 
   -9.79444622e-05    -3.62353114e-05    -7.40354341e-06 
   -9.15345077e-05    -3.81999115e-05    -1.09955728e-05 
   -8.35161356e-05    -4.00605163e-05    -2.71304072e-05 
   -7.24643960e-05    -4.02803718e-05    -4.41173892e-05 
   -4.02958311e-05     3.37021545e-05     3.76506745e-05 
   -4.81046637e-05     3.59790644e-05     2.72254173e-05 
   -5.84549262e-05     3.33571243e-05     1.55199378e-05 
   -6.47418315e-05     3.10737067e-05     8.90054593e-06 
   -6.86833661e-05     3.08940893e-05     2.98909814e-06 
   -6.86849912e-05     3.08947485e-05    -2.98902377e-06 
   -6.47426768e-05     3.10739034e-05    -8.90049891e-06 
   -5.84610092e-05     3.33584759e-05    -1.55194846e-05 
   -4.81063106e-05     3.59760071e-05    -2.72269319e-05 
   -4.02630667e-05     3.36948245e-05    -3.76446547e-05 
   -4.87743728e-05     2.66697226e-05     3.60091065e-05 
   -5.85538542e-05     2.52489936e-05     2.41280548e-05 
   -6.79857635e-05     2.40458109e-05     1.66397535e-05 
   -7.53859693e-05     2.20190760e-05     9.07113048e-06 
   -7.89004599e-05     2.03941836e-05     3.62826758e-06 
   -7.89018387e-05     2.03929829e-05    -3.63058288e-06 
   -7.53869013e-05     2.20200279e-05    -9.07192096e-06 
   -6.79858174e-05     2.40429529e-05    -1.66435987e-05 
   -5.85689502e-05     2.52397059e-05    -2.41208426e-05 
   -4.87809581e-05     2.66658437e-05    -3.60083172e-05 
   -5.69161038e-05     1.58831513e-05     3.31363771e-05 
   -6.72861876e-05     1.59515685e-05     2.47227893e-05 
   -7.87437876e-05     1.34304159e-05     1.32663218e-05 
   -8.73653561e-05     1.16121905e-05     8.27170589e-06 
   -9.15506671e-05     1.05519195e-05     2.41009572e-06 
   -9.15515751e-05     1.05523947e-05    -2.41385668e-06 
   -8.73644074e-05     1.16110629e-05    -8.27714252e-06 
   -7.87493429e-05     1.34312700e-05    -1.32718142e-05 
   -6.72858303e-05     1.59504185e-05    -2.47265501e-05 
   -5.69230359e-05     1.58813110e-05    -3.31410575e-05 
   -6.45782523e-05     7.41145327e-06     3.08078733e-05 
   -7.55320762e-05     8.81914668e-06     2.13288541e-05 
   -8.73863592e-05     7.80896702e-06     1.17872050e-05 
   -9.75822627e-05     6.05157356e-06     6.01552876e-06 
   -1.02046481e-04     4.67163022e-06     2.26693640e-06 
   -1.02046012e-04     4.67132721e-06    -2.27083996e-06 
   -9.75844071e-05     6.05521047e-06    -6.02192253e-06 
   -8.73859797e-05     7.80978946e-06    -1.17913531e-05 
   -7.55350870e-05     8.81806123e-06    -2.13342383e-05 
   -6.45828922e-05     7.41121461e-06    -3.08130519e-05 
   -6.77785377e-05     3.23555665e-06     3.05418866e-05 
   -7.86169958e-05     3.18393732e-06     2.02149733e-05 
   -9.13728660e-05     2.74481739e-06     1.02962189e-05 
   -1.02094867e-04     2.23916462e-06     4.97144752e-06 
   -1.06515105e-04     1.43319509e-06     1.52666566e-06 
   -1.06516536e-04     1.43727138e-06    -1.53354921e-06 
   -1.02094530e-04     2.24007836e-06    -4.97448826e-06 
   -9.13736163e-05     2.74509805e-06    -1.03017347e-05 
   -7.86186115e-05     3.18408503e-06    -2.02216300e-05 
   -6.77813436e-05     3.23711453e-06    -3.05477999e-05 
   -6.77785377e-05    -3.23555665e-06     3.05418866e-05 
   -7.86169958e-05    -3.18393732e-06     2.02149733e-05 
   -9.13728660e-05    -2.74481739e-06     1.02962189e-05 
   -1.02094867e-04    -2.23916462e-06     4.97144752e-06 
   -1.06515105e-04    -1.43319509e-06     1.52666566e-06 
   -1.06516536e-04    -1.43727138e-06    -1.53354921e-06 
   -1.02094530e-04    -2.24007836e-06    -4.97448826e-06 
   -9.13736163e-05    -2.74509805e-06    -1.03017347e-05 
   -7.86186115e-05    -3.18408503e-06    -2.02216300e-05 
   -6.77813436e-05    -3.23711453e-06    -3.05477999e-05 
   -6.45782523e-05    -7.41145327e-06     3.08078733e-05 
   -7.55320762e-05    -8.81914668e-06     2.13288541e-05 
   -8.73863592e-05    -7.80896702e-06     1.17872050e-05 
   -9.75822627e-05    -6.05157356e-06     6.01552876e-06 
   -1.02046481e-04    -4.67163022e-06     2.26693640e-06 
   -1.02046012e-04    -4.67132721e-06    -2.27083996e-06 
   -9.75844071e-05    -6.05521047e-06    -6.02192253e-06 
   -8.73859797e-05    -7.80978946e-06    -1.17913531e-05 
   -7.55350870e-05    -8.81806123e-06    -2.13342383e-05 
   -6.45828922e-05    -7.41121461e-06    -3.08130519e-05 
   -5.69161038e-05    -1.58831513e-05     3.31363771e-05 
   -6.72861876e-05    -1.59515685e-05     2.47227893e-05 
   -7.87437876e-05    -1.34304159e-05     1.32663218e-05 
   -8.73653561e-05    -1.16121905e-05     8.27170589e-06 
   -9.15506671e-05    -1.05519195e-05     2.41009572e-06 
   -9.15515751e-05    -1.05523947e-05    -2.41385668e-06 
   -8.73644074e-05    -1.16110629e-05    -8.27714252e-06 
   -7.87493429e-05    -1.34312700e-05    -1.32718142e-05 
   -6.72858303e-05    -1.59504185e-05    -2.47265501e-05 
   -5.69230359e-05    -1.58813110e-05    -3.31410575e-05 
   -4.87743728e-05    -2.66697226e-05     3.60091065e-05 
   -5.85538542e-05    -2.52489936e-05     2.41280548e-05 
   -6.79857635e-05    -2.40458109e-05     1.66397535e-05 
   -7.53859693e-05    -2.20190760e-05     9.07113048e-06 
   -7.89004599e-05    -2.03941836e-05     3.62826758e-06 
   -7.89018387e-05    -2.03929829e-05    -3.63058288e-06 
   -7.53869013e-05    -2.20200279e-05    -9.07192096e-06 
   -6.79858174e-05    -2.40429529e-05    -1.66435987e-05 
   -5.85689502e-05    -2.52397059e-05    -2.41208426e-05 
   -4.87809581e-05    -2.66658437e-05    -3.60083172e-05 
   -4.02958311e-05    -3.37021545e-05     3.76506745e-05 
   -4.81046637e-05    -3.59790644e-05     2.72254173e-05 
   -5.84549262e-05    -3.33571243e-05     1.55199378e-05 
   -6.47418315e-05    -3.10737067e-05     8.90054593e-06 
   -6.86833661e-05    -3.08940893e-05     2.98909814e-06 
   -6.86849912e-05    -3.08947485e-05    -2.98902377e-06 
   -6.47426768e-05    -3.10739034e-05    -8.90049891e-06 
   -5.84610092e-05    -3.33584759e-05    -1.55194846e-05 
   -4.81063106e-05    -3.59760071e-05    -2.72269319e-05 
   -4.02630667e-05    -3.36948245e-05    -3.76446547e-05 
   -2.68977221e-05     3.40965416e-05     3.76144052e-05 
   -3.45625893e-05     3.78064929e-05     2.90658572e-05 
   -4.10316083e-05     3.55187987e-05     1.96721392e-05 
   -4.91887544e-05     3.33356175e-05     1.08295065e-05 
   -5.41560810e-05     3.21695816e-05     2.54625906e-06 
   -5.41564343e-05     3.21699971e-05    -2.54732125e-06 
   -4.91895432e-05     3.33356262e-05    -1.08317466e-05 
   -4.10323055e-05     3.55168355e-05    -1.96769402e-05 
   -3.45644271e-05     3.78051340e-05    -2.90708051e-05 
   -2.68712209e-05     3.40947397e-05    -3.76153306e-05 
   -3.37248105e-05     2.90983031e-05     3.76436362e-05 
   -4.15552787e-05     2.66085850e-05     2.69705599e-05 
   -4.80496601e-05     2.58246068e-05     2.04550692e-05 
   -5.67225522e-05     2.30640800e-05     1.21154984e-05 
   -6.16583478e-05     2.11644343e-05     3.29452934e-06 
   -6.16578594e-05     2.11639030e-05    -3.29624723e-06 
   -5.67212025e-05     2.30639955e-05    -1.21188924e-05 
   -4.80523583e-05     2.58228253e-05    -2.04548114e-05 
   -4.15685674e-05     2.66049507e-05    -2.69702286e-05 
   -3.37255168e-05     2.91006023e-05    -3.76445332e-05 
   -4.11206720e-05     1.99222528e-05     3.54882984e-05 
   -4.84770264e-05     2.00835001e-05     2.59080463e-05 
   -5.64520881e-05     1.69135552e-05     1.70914566e-05 
   -6.53970687e-05     1.62045734e-05     1.05887563e-05 
   -7.07805242e-05     1.51405832e-05     2.42481372e-06 
   -7.07792114e-05     1.51410074e-05    -2.42866417e-06 
   -6.53973991e-05     1.62040399e-05    -1.05912767e-05 
   -5.64607414e-05     1.69117216e-05    -1.70935838e-05 
   -4.84814107e-05     2.00797193e-05    -2.59104950e-05 
   -4.11231896e-05     1.99232247e-05    -3.54887104e-05 
   -4.88546056e-05     9.95803612e-06     3.32219443e-05 
   -5.65706535e-05     1.14612886e-05     2.28882451e-05 
   -6.52291262e-05     1.01688507e-05     1.65681940e-05 
   -7.50216849e-05     8.18699017e-06     8.28889153e-06 
   -8.08299656e-05     7.24195062e-06     1.99779265e-06 
   -8.08301802e-05     7.24077769e-06    -2.00098624e-06 
   -7.50233620e-05     8.19010298e-06    -8.29552433e-06 
   -6.52308310e-05     1.01673151e-05    -1.65722406e-05 
   -5.65716012e-05     1.14617201e-05    -2.28924749e-05 
   -4.88583907e-05     9.95787834e-06    -3.32259961e-05 
   -5.39559739e-05     2.89000040e-06     3.19965150e-05 
   -6.15248441e-05     3.29098494e-06     2.10632824e-05 
   -7.07380322e-05     2.69369028e-06     1.51140854e-05 
   -8.08989202e-05     2.03151215e-06     7.56949594e-06 
   -8.65692828e-05     1.39489877e-06     1.50540526e-06 
   -8.65693285e-05     1.39901749e-06    -1.51124169e-06 
   -8.08986689e-05     2.02994331e-06    -7.57286266e-06 
   -7.07378779e-05     2.69431121e-06    -1.51194839e-05 
   -6.15266861e-05     3.29059647e-06    -2.10692349e-05 
   -5.39589823e-05     2.88971497e-06    -3.20015447e-05 
   -5.39559739e-05    -2.89000040e-06     3.19965150e-05 
   -6.15248441e-05    -3.29098494e-06     2.10632824e-05 
   -7.07380322e-05    -2.69369028e-06     1.51140854e-05 
   -8.08989202e-05    -2.03151215e-06     7.56949594e-06 
   -8.65692828e-05    -1.39489877e-06     1.50540526e-06 
   -8.65693285e-05    -1.39901749e-06    -1.51124169e-06 
   -8.08986689e-05    -2.02994331e-06    -7.57286266e-06 
   -7.07378779e-05    -2.69431121e-06    -1.51194839e-05 
   -6.15266861e-05    -3.29059647e-06    -2.10692349e-05 
   -5.39589823e-05    -2.88971497e-06    -3.20015447e-05 
   -4.88546056e-05    -9.95803612e-06     3.32219443e-05 
   -5.65706535e-05    -1.14612886e-05     2.28882451e-05 
   -6.52291262e-05    -1.01688507e-05     1.65681940e-05 
   -7.50216849e-05    -8.18699017e-06     8.28889153e-06 
   -8.08299656e-05    -7.24195062e-06     1.99779265e-06 
   -8.08301802e-05    -7.24077769e-06    -2.00098624e-06 
   -7.50233620e-05    -8.19010298e-06    -8.29552433e-06 
   -6.52308310e-05    -1.01673151e-05    -1.65722406e-05 
   -5.65716012e-05    -1.14617201e-05    -2.28924749e-05 
   -4.88583907e-05    -9.95787834e-06    -3.32259961e-05 
   -4.11206720e-05    -1.99222528e-05     3.54882984e-05 
   -4.84770264e-05    -2.00835001e-05     2.59080463e-05 
   -5.64520881e-05    -1.69135552e-05     1.70914566e-05 
   -6.53970687e-05    -1.62045734e-05     1.05887563e-05 
   -7.07805242e-05    -1.51405832e-05     2.42481372e-06 
   -7.07792114e-05    -1.51410074e-05    -2.42866417e-06 
   -6.53973991e-05    -1.62040399e-05    -1.05912767e-05 
   -5.64607414e-05    -1.69117216e-05    -1.70935838e-05 
   -4.84814107e-05    -2.00797193e-05    -2.59104950e-05 
   -4.11231896e-05    -1.99232247e-05    -3.54887104e-05 
   -3.37248105e-05    -2.90983031e-05     3.76436362e-05 
   -4.15552787e-05    -2.66085850e-05     2.69705599e-05 
   -4.80496601e-05    -2.58246068e-05     2.04550692e-05 
   -5.67225522e-05    -2.30640800e-05     1.21154984e-05 
   -6.16583478e-05    -2.11644343e-05     3.29452934e-06 
   -6.16578594e-05    -2.11639030e-05    -3.29624723e-06 
   -5.67212025e-05    -2.30639955e-05    -1.21188924e-05 
   -4.80523583e-05    -2.58228253e-05    -2.04548114e-05 
   -4.15685674e-05    -2.66049507e-05    -2.69702286e-05 
   -3.37255168e-05    -2.91006023e-05    -3.76445332e-05 
   -2.68977221e-05    -3.40965416e-05     3.76144052e-05 
   -3.45625893e-05    -3.78064929e-05     2.90658572e-05 
   -4.10316083e-05    -3.55187987e-05     1.96721392e-05 
   -4.91887544e-05    -3.33356175e-05     1.08295065e-05 
   -5.41560810e-05    -3.21695816e-05     2.54625906e-06 
   -5.41564343e-05    -3.21699971e-05    -2.54732125e-06 
   -4.91895432e-05    -3.33356262e-05    -1.08317466e-05 
   -4.10323055e-05    -3.55168355e-05    -1.96769402e-05 
   -3.45644271e-05    -3.78051340e-05    -2.90708051e-05 
   -2.68712209e-05    -3.40947397e-05    -3.76153306e-05 
   -1.97839521e-05     3.18677515e-05     3.54816582e-05 
   -2.18603916e-05     3.52631950e-05     2.86280178e-05 
   -2.77162738e-05     3.15440257e-05     2.15837589e-05 
   -3.20120218e-05     2.96695715e-05     1.38171581e-05 
   -3.77909213e-05     2.78032376e-05     4.99030002e-06 
   -3.77914662e-05     2.78033227e-05    -4.99329878e-06 
   -3.20102414e-05     2.96691896e-05    -1.38205809e-05 
   -2.77165044e-05     3.15433413e-05    -2.15888448e-05 
   -2.18607018e-05     3.52626862e-05    -2.86321178e-05 
   -1.97648787e-05     3.18685761e-05    -3.54853198e-05 
   -2.29218704e-05     2.92937794e-05     3.50196131e-05 
   -2.44537887e-05     2.66202217e-05     2.64266709e-05 
   -2.98044329e-05     2.62873140e-05     2.21562754e-05 
   -3.46451654e-05     2.32379455e-05     1.48951802e-05 
   -4.07462146e-05     2.15196361e-05     5.58593800e-06 
   -4.07454703e-05     2.15195401e-05    -5.58943883e-06 
   -3.46457101e-05     2.32374820e-05    -1.48956897e-05 
   -2.98067205e-05     2.62863697e-05    -2.21575832e-05 
   -2.44634694e-05     2.66183661e-05    -2.64271831e-05 
   -2.29226640e-05     2.92945444e-05    -3.50209224e-05 
   -2.81570988e-05     2.16687250e-05     3.13382755e-05 
   -2.97851909e-05     2.18811267e-05     2.62119764e-05 
   -3.61054404e-05     1.85573471e-05     1.89662036e-05 
   -4.13104702e-05     1.77126420e-05     1.36911404e-05 
   -4.78689298e-05     1.64782576e-05     4.65391180e-06 
   -4.78691500e-05     1.64776111e-05    -4.65703908e-06 
   -4.13106719e-05     1.77123850e-05    -1.36928026e-05 
   -3.61124305e-05     1.85570997e-05    -1.89688976e-05 
   -2.97872158e-05     2.18797314e-05    -2.62142292e-05 
   -2.81567079e-05     2.16711911e-05    -3.13395189e-05 
   -3.22859968e-05     1.30573465e-05     2.96797936e-05 
   -3.46845574e-05     1.44719338e-05     2.32186536e-05 
   -4.14078988e-05     1.33489559e-05     1.80315480e-05 
   -4.63709455e-05     1.08468415e-05     1.10514488e-05 
   -5.28426540e-05     1.06284557e-05     4.18118174e-06 
   -5.28427490e-05     1.06285301e-05    -4.18371754e-06 
   -4.63745253e-05     1.08467324e-05    -1.10549092e-05 
   -4.14097294e-05     1.33474844e-05    -1.80346873e-05 
   -3.46868049e-05     1.44704123e-05    -2.32217973e-05 
   -3.22870068e-05     1.30577831e-05    -2.96825158e-05 
   -3.74821820e-05     5.01067610e-06     2.77515848e-05 
   -4.05339923e-05     5.35289807e-06     2.15642729e-05 
   -4.76330106e-05     4.62944797e-06     1.65370635e-05 