# vtk DataFile Version 2.0 
generated by Lattice Boltzmann Method time =   6.35085296e-01
ASCII 
DATASET UNSTRUCTURED_GRID

POINTS   1000 FLOAT 
  0.00000000e+00   0.00000000e+00   0.00000000e+00 
  0.00000000e+00   0.00000000e+00   1.00000000e-01 
  0.00000000e+00   0.00000000e+00   2.00000000e-01 
  0.00000000e+00   0.00000000e+00   3.00000000e-01 
  0.00000000e+00   0.00000000e+00   4.00000000e-01 
  0.00000000e+00   0.00000000e+00   5.00000000e-01 
  0.00000000e+00   0.00000000e+00   6.00000000e-01 
  0.00000000e+00   0.00000000e+00   7.00000000e-01 
  0.00000000e+00   0.00000000e+00   8.00000000e-01 
  0.00000000e+00   0.00000000e+00   9.00000000e-01 
  0.00000000e+00   1.00000000e-01   0.00000000e+00 
  0.00000000e+00   1.00000000e-01   1.00000000e-01 
  0.00000000e+00   1.00000000e-01   2.00000000e-01 
  0.00000000e+00   1.00000000e-01   3.00000000e-01 
  0.00000000e+00   1.00000000e-01   4.00000000e-01 
  0.00000000e+00   1.00000000e-01   5.00000000e-01 
  0.00000000e+00   1.00000000e-01   6.00000000e-01 
  0.00000000e+00   1.00000000e-01   7.00000000e-01 
  0.00000000e+00   1.00000000e-01   8.00000000e-01 
  0.00000000e+00   1.00000000e-01   9.00000000e-01 
  0.00000000e+00   2.00000000e-01   0.00000000e+00 
  0.00000000e+00   2.00000000e-01   1.00000000e-01 
  0.00000000e+00   2.00000000e-01   2.00000000e-01 
  0.00000000e+00   2.00000000e-01   3.00000000e-01 
  0.00000000e+00   2.00000000e-01   4.00000000e-01 
  0.00000000e+00   2.00000000e-01   5.00000000e-01 
  0.00000000e+00   2.00000000e-01   6.00000000e-01 
  0.00000000e+00   2.00000000e-01   7.00000000e-01 
  0.00000000e+00   2.00000000e-01   8.00000000e-01 
  0.00000000e+00   2.00000000e-01   9.00000000e-01 
  0.00000000e+00   3.00000000e-01   0.00000000e+00 
  0.00000000e+00   3.00000000e-01   1.00000000e-01 
  0.00000000e+00   3.00000000e-01   2.00000000e-01 
  0.00000000e+00   3.00000000e-01   3.00000000e-01 
  0.00000000e+00   3.00000000e-01   4.00000000e-01 
  0.00000000e+00   3.00000000e-01   5.00000000e-01 
  0.00000000e+00   3.00000000e-01   6.00000000e-01 
  0.00000000e+00   3.00000000e-01   7.00000000e-01 
  0.00000000e+00   3.00000000e-01   8.00000000e-01 
  0.00000000e+00   3.00000000e-01   9.00000000e-01 
  0.00000000e+00   4.00000000e-01   0.00000000e+00 
  0.00000000e+00   4.00000000e-01   1.00000000e-01 
  0.00000000e+00   4.00000000e-01   2.00000000e-01 
  0.00000000e+00   4.00000000e-01   3.00000000e-01 
  0.00000000e+00   4.00000000e-01   4.00000000e-01 
  0.00000000e+00   4.00000000e-01   5.00000000e-01 
  0.00000000e+00   4.00000000e-01   6.00000000e-01 
  0.00000000e+00   4.00000000e-01   7.00000000e-01 
  0.00000000e+00   4.00000000e-01   8.00000000e-01 
  0.00000000e+00   4.00000000e-01   9.00000000e-01 
  0.00000000e+00   5.00000000e-01   0.00000000e+00 
  0.00000000e+00   5.00000000e-01   1.00000000e-01 
  0.00000000e+00   5.00000000e-01   2.00000000e-01 
  0.00000000e+00   5.00000000e-01   3.00000000e-01 
  0.00000000e+00   5.00000000e-01   4.00000000e-01 
  0.00000000e+00   5.00000000e-01   5.00000000e-01 
  0.00000000e+00   5.00000000e-01   6.00000000e-01 
  0.00000000e+00   5.00000000e-01   7.00000000e-01 
  0.00000000e+00   5.00000000e-01   8.00000000e-01 
  0.00000000e+00   5.00000000e-01   9.00000000e-01 
  0.00000000e+00   6.00000000e-01   0.00000000e+00 
  0.00000000e+00   6.00000000e-01   1.00000000e-01 
  0.00000000e+00   6.00000000e-01   2.00000000e-01 
  0.00000000e+00   6.00000000e-01   3.00000000e-01 
  0.00000000e+00   6.00000000e-01   4.00000000e-01 
  0.00000000e+00   6.00000000e-01   5.00000000e-01 
  0.00000000e+00   6.00000000e-01   6.00000000e-01 
  0.00000000e+00   6.00000000e-01   7.00000000e-01 
  0.00000000e+00   6.00000000e-01   8.00000000e-01 
  0.00000000e+00   6.00000000e-01   9.00000000e-01 
  0.00000000e+00   7.00000000e-01   0.00000000e+00 
  0.00000000e+00   7.00000000e-01   1.00000000e-01 
  0.00000000e+00   7.00000000e-01   2.00000000e-01 
  0.00000000e+00   7.00000000e-01   3.00000000e-01 
  0.00000000e+00   7.00000000e-01   4.00000000e-01 
  0.00000000e+00   7.00000000e-01   5.00000000e-01 
  0.00000000e+00   7.00000000e-01   6.00000000e-01 
  0.00000000e+00   7.00000000e-01   7.00000000e-01 
  0.00000000e+00   7.00000000e-01   8.00000000e-01 
  0.00000000e+00   7.00000000e-01   9.00000000e-01 
  0.00000000e+00   8.00000000e-01   0.00000000e+00 
  0.00000000e+00   8.00000000e-01   1.00000000e-01 
  0.00000000e+00   8.00000000e-01   2.00000000e-01 
  0.00000000e+00   8.00000000e-01   3.00000000e-01 
  0.00000000e+00   8.00000000e-01   4.00000000e-01 
  0.00000000e+00   8.00000000e-01   5.00000000e-01 
  0.00000000e+00   8.00000000e-01   6.00000000e-01 
  0.00000000e+00   8.00000000e-01   7.00000000e-01 
  0.00000000e+00   8.00000000e-01   8.00000000e-01 
  0.00000000e+00   8.00000000e-01   9.00000000e-01 
  0.00000000e+00   9.00000000e-01   0.00000000e+00 
  0.00000000e+00   9.00000000e-01   1.00000000e-01 
  0.00000000e+00   9.00000000e-01   2.00000000e-01 
  0.00000000e+00   9.00000000e-01   3.00000000e-01 
  0.00000000e+00   9.00000000e-01   4.00000000e-01 
  0.00000000e+00   9.00000000e-01   5.00000000e-01 
  0.00000000e+00   9.00000000e-01   6.00000000e-01 
  0.00000000e+00   9.00000000e-01   7.00000000e-01 
  0.00000000e+00   9.00000000e-01   8.00000000e-01 
  0.00000000e+00   9.00000000e-01   9.00000000e-01 
  1.00000000e-01   0.00000000e+00   0.00000000e+00 
  1.00000000e-01   0.00000000e+00   1.00000000e-01 
  1.00000000e-01   0.00000000e+00   2.00000000e-01 
  1.00000000e-01   0.00000000e+00   3.00000000e-01 
  1.00000000e-01   0.00000000e+00   4.00000000e-01 
  1.00000000e-01   0.00000000e+00   5.00000000e-01 
  1.00000000e-01   0.00000000e+00   6.00000000e-01 
  1.00000000e-01   0.00000000e+00   7.00000000e-01 
  1.00000000e-01   0.00000000e+00   8.00000000e-01 
  1.00000000e-01   0.00000000e+00   9.00000000e-01 
  1.00000000e-01   1.00000000e-01   0.00000000e+00 
  1.00000000e-01   1.00000000e-01   1.00000000e-01 
  1.00000000e-01   1.00000000e-01   2.00000000e-01 
  1.00000000e-01   1.00000000e-01   3.00000000e-01 
  1.00000000e-01   1.00000000e-01   4.00000000e-01 
  1.00000000e-01   1.00000000e-01   5.00000000e-01 
  1.00000000e-01   1.00000000e-01   6.00000000e-01 
  1.00000000e-01   1.00000000e-01   7.00000000e-01 
  1.00000000e-01   1.00000000e-01   8.00000000e-01 
  1.00000000e-01   1.00000000e-01   9.00000000e-01 
  1.00000000e-01   2.00000000e-01   0.00000000e+00 
  1.00000000e-01   2.00000000e-01   1.00000000e-01 
  1.00000000e-01   2.00000000e-01   2.00000000e-01 
  1.00000000e-01   2.00000000e-01   3.00000000e-01 
  1.00000000e-01   2.00000000e-01   4.00000000e-01 
  1.00000000e-01   2.00000000e-01   5.00000000e-01 
  1.00000000e-01   2.00000000e-01   6.00000000e-01 
  1.00000000e-01   2.00000000e-01   7.00000000e-01 
  1.00000000e-01   2.00000000e-01   8.00000000e-01 
  1.00000000e-01   2.00000000e-01   9.00000000e-01 
  1.00000000e-01   3.00000000e-01   0.00000000e+00 
  1.00000000e-01   3.00000000e-01   1.00000000e-01 
  1.00000000e-01   3.00000000e-01   2.00000000e-01 
  1.00000000e-01   3.00000000e-01   3.00000000e-01 
  1.00000000e-01   3.00000000e-01   4.00000000e-01 
  1.00000000e-01   3.00000000e-01   5.00000000e-01 
  1.00000000e-01   3.00000000e-01   6.00000000e-01 
  1.00000000e-01   3.00000000e-01   7.00000000e-01 
  1.00000000e-01   3.00000000e-01   8.00000000e-01 
  1.00000000e-01   3.00000000e-01   9.00000000e-01 
  1.00000000e-01   4.00000000e-01   0.00000000e+00 
  1.00000000e-01   4.00000000e-01   1.00000000e-01 
  1.00000000e-01   4.00000000e-01   2.00000000e-01 
  1.00000000e-01   4.00000000e-01   3.00000000e-01 
  1.00000000e-01   4.00000000e-01   4.00000000e-01 
  1.00000000e-01   4.00000000e-01   5.00000000e-01 
  1.00000000e-01   4.00000000e-01   6.00000000e-01 
  1.00000000e-01   4.00000000e-01   7.00000000e-01 
  1.00000000e-01   4.00000000e-01   8.00000000e-01 
  1.00000000e-01   4.00000000e-01   9.00000000e-01 
  1.00000000e-01   5.00000000e-01   0.00000000e+00 
  1.00000000e-01   5.00000000e-01   1.00000000e-01 
  1.00000000e-01   5.00000000e-01   2.00000000e-01 
  1.00000000e-01   5.00000000e-01   3.00000000e-01 
  1.00000000e-01   5.00000000e-01   4.00000000e-01 
  1.00000000e-01   5.00000000e-01   5.00000000e-01 
  1.00000000e-01   5.00000000e-01   6.00000000e-01 
  1.00000000e-01   5.00000000e-01   7.00000000e-01 
  1.00000000e-01   5.00000000e-01   8.00000000e-01 
  1.00000000e-01   5.00000000e-01   9.00000000e-01 
  1.00000000e-01   6.00000000e-01   0.00000000e+00 
  1.00000000e-01   6.00000000e-01   1.00000000e-01 
  1.00000000e-01   6.00000000e-01   2.00000000e-01 
  1.00000000e-01   6.00000000e-01   3.00000000e-01 
  1.00000000e-01   6.00000000e-01   4.00000000e-01 
  1.00000000e-01   6.00000000e-01   5.00000000e-01 
  1.00000000e-01   6.00000000e-01   6.00000000e-01 
  1.00000000e-01   6.00000000e-01   7.00000000e-01 
  1.00000000e-01   6.00000000e-01   8.00000000e-01 
  1.00000000e-01   6.00000000e-01   9.00000000e-01 
  1.00000000e-01   7.00000000e-01   0.00000000e+00 
  1.00000000e-01   7.00000000e-01   1.00000000e-01 
  1.00000000e-01   7.00000000e-01   2.00000000e-01 
  1.00000000e-01   7.00000000e-01   3.00000000e-01 
  1.00000000e-01   7.00000000e-01   4.00000000e-01 
  1.00000000e-01   7.00000000e-01   5.00000000e-01 
  1.00000000e-01   7.00000000e-01   6.00000000e-01 
  1.00000000e-01   7.00000000e-01   7.00000000e-01 
  1.00000000e-01   7.00000000e-01   8.00000000e-01 
  1.00000000e-01   7.00000000e-01   9.00000000e-01 
  1.00000000e-01   8.00000000e-01   0.00000000e+00 
  1.00000000e-01   8.00000000e-01   1.00000000e-01 
  1.00000000e-01   8.00000000e-01   2.00000000e-01 
  1.00000000e-01   8.00000000e-01   3.00000000e-01 
  1.00000000e-01   8.00000000e-01   4.00000000e-01 
  1.00000000e-01   8.00000000e-01   5.00000000e-01 
  1.00000000e-01   8.00000000e-01   6.00000000e-01 
  1.00000000e-01   8.00000000e-01   7.00000000e-01 
  1.00000000e-01   8.00000000e-01   8.00000000e-01 
[...]
POINT_DATA   1000
FIELD solution 1
u 3   1000 DOUBLE
   -2.94850755e-04     8.89925472e-05     8.20686744e-05 
   -2.99951168e-04     8.53883468e-05     5.89479761e-05 
   -3.03664963e-04     8.56145727e-05     4.09387715e-05 
   -3.03765365e-04     8.46579811e-05     2.64416243e-05 
   -3.02638456e-04     8.53612723e-05     8.02343050e-06 
   -3.02639000e-04     8.53616739e-05    -8.02555022e-06 
   -3.03766193e-04     8.46566857e-05    -2.64443334e-05 
   -3.03666789e-04     8.56142607e-05    -4.09406122e-05 
   -2.99953850e-04     8.53860710e-05    -5.89565611e-05 
   -2.94758454e-04     8.89847789e-05    -8.20871494e-05 
   -2.97062409e-04     5.80061838e-05     8.49080458e-05 
   -2.96767376e-04     5.95584698e-05     5.88512262e-05 
   -3.01718772e-04     5.72675523e-05     4.07828966e-05 
   -3.02017503e-04     5.78179737e-05     2.55664214e-05 
   -3.01020367e-04     5.84235536e-05     8.36803611e-06 
   -3.01020660e-04     5.84230146e-05    -8.37228900e-06 
   -3.02018627e-04     5.78179605e-05    -2.55701355e-05 
   -3.01720306e-04     5.72662740e-05    -4.07867687e-05 
   -2.96766857e-04     5.95877979e-05    -5.88836076e-05 
   -2.97065054e-04     5.80095433e-05    -8.49101661e-05 
   -3.02139200e-04     4.06775081e-05     8.51929256e-05 
   -3.01540606e-04     4.10556714e-05     5.68389005e-05 
   -3.05882520e-04     4.25047912e-05     4.20465317e-05 
   -3.06334283e-04     4.18021150e-05     2.56725113e-05 
   -3.05119026e-04     4.25406480e-05     7.84167213e-06 
   -3.05119433e-04     4.25408473e-05    -7.84569937e-06 
   -3.06335006e-04     4.18013176e-05    -2.56768281e-05 
   -3.05882457e-04     4.25157928e-05    -4.20605181e-05 
   -3.01541959e-04     4.10565493e-05    -5.68415860e-05 
   -3.02140653e-04     4.06764179e-05    -8.51973178e-05 
   -3.02774932e-04     2.54472981e-05     8.43671695e-05 
   -3.01806623e-04     2.55904424e-05     5.73105990e-05 
   -3.06220069e-04     2.56926249e-05     4.14282456e-05 
   -3.05922978e-04     2.72020950e-05     2.70739538e-05 
   -3.04538911e-04     2.63451953e-05     8.57302629e-06 
   -3.04539149e-04     2.63450762e-05    -8.57609682e-06 
   -3.05922904e-04     2.72122534e-05    -2.70868020e-05 
   -3.06220882e-04     2.56931726e-05    -4.14308015e-05 
   -3.01807734e-04     2.55905294e-05    -5.73145593e-05 
   -3.02775761e-04     2.54477593e-05    -8.43719216e-05 
   -3.01996482e-04     7.90900260e-06     8.52645419e-05 
   -3.00850531e-04     8.37644847e-06     5.81423425e-05 
   -3.05000589e-04     7.97791020e-06     4.22108729e-05 
   -3.04481829e-04     8.57272576e-06     2.62470252e-05 
   -3.02888788e-04     8.60114712e-06     8.55321772e-06 
   -3.02888807e-04     8.61056258e-06    -8.56433496e-06 
   -3.04482195e-04     8.57301071e-06    -2.62492012e-05 
   -3.05001294e-04     7.97775798e-06    -4.22143966e-05 
   -3.00851250e-04     8.37706703e-06    -5.81469306e-05 
   -3.01996796e-04     7.90876488e-06    -8.52700669e-05 
   -3.01996482e-04    -7.90900260e-06     8.52645419e-05 
   -3.00850531e-04    -8.37644847e-06     5.81423425e-05 
   -3.05000589e-04    -7.97791020e-06     4.22108729e-05 
   -3.04481829e-04    -8.57272576e-06     2.62470252e-05 
   -3.02888788e-04    -8.60114712e-06     8.55321772e-06 
   -3.02888807e-04    -8.61056258e-06    -8.56433496e-06 
   -3.04482195e-04    -8.57301071e-06    -2.62492012e-05 
   -3.05001294e-04    -7.97775798e-06    -4.22143966e-05 
   -3.00851250e-04    -8.37706703e-06    -5.81469306e-05 
   -3.01996796e-04    -7.90876488e-06    -8.52700669e-05 
   -3.02774932e-04    -2.54472981e-05     8.43671695e-05 
   -3.01806623e-04    -2.55904424e-05     5.73105990e-05 
   -3.06220069e-04    -2.56926249e-05     4.14282456e-05 
   -3.05922978e-04    -2.72020950e-05     2.70739538e-05 
   -3.04538911e-04    -2.63451953e-05     8.57302629e-06 
   -3.04539149e-04    -2.63450762e-05    -8.57609682e-06 
   -3.05922904e-04    -2.72122534e-05    -2.70868020e-05 
   -3.06220882e-04    -2.56931726e-05    -4.14308015e-05 
   -3.01807734e-04    -2.55905294e-05    -5.73145593e-05 
   -3.02775761e-04    -2.54477593e-05    -8.43719216e-05 
   -3.02139200e-04    -4.06775081e-05     8.51929256e-05 
   -3.01540606e-04    -4.10556714e-05     5.68389005e-05 
   -3.05882520e-04    -4.25047912e-05     4.20465317e-05 
   -3.06334283e-04    -4.18021150e-05     2.56725113e-05 
   -3.05119026e-04    -4.25406480e-05     7.84167213e-06 
   -3.05119433e-04    -4.25408473e-05    -7.84569937e-06 
   -3.06335006e-04    -4.18013176e-05    -2.56768281e-05 
   -3.05882457e-04    -4.25157928e-05    -4.20605181e-05 
   -3.01541959e-04    -4.10565493e-05    -5.68415860e-05 
   -3.02140653e-04    -4.06764179e-05    -8.51973178e-05 
   -2.97062409e-04    -5.80061838e-05     8.49080458e-05 
   -2.96767376e-04    -5.95584698e-05     5.88512262e-05 
   -3.01718772e-04    -5.72675523e-05     4.07828966e-05 
   -3.02017503e-04    -5.78179737e-05     2.55664214e-05 
   -3.01020367e-04    -5.84235536e-05     8.36803611e-06 
   -3.01020660e-04    -5.84230146e-05    -8.37228900e-06 
   -3.02018627e-04    -5.78179605e-05    -2.55701355e-05 
   -3.01720306e-04    -5.72662740e-05    -4.07867687e-05 
   -2.96766857e-04    -5.95877979e-05    -5.88836076e-05 
   -2.97065054e-04    -5.80095433e-05    -8.49101661e-05 
   -2.94850755e-04    -8.89925472e-05     8.20686744e-05 
   -2.99951168e-04    -8.53883468e-05     5.89479761e-05 
   -3.03664963e-04    -8.56145727e-05     4.09387715e-05 
   -3.03765365e-04    -8.46579811e-05     2.64416243e-05 
   -3.02638456e-04    -8.53612723e-05     8.02343050e-06 
   -3.02639000e-04    -8.53616739e-05    -8.02555022e-06 
   -3.03766193e-04    -8.46566857e-05    -2.64443334e-05 
   -3.03666789e-04    -8.56142607e-05    -4.09406122e-05 
   -2.99953850e-04    -8.53860710e-05    -5.89565611e-05 
   -2.94758454e-04    -8.89847789e-05    -8.20871494e-05 
   -2.32739892e-04     9.04106766e-05     9.01818520e-05 
   -2.36341990e-04     8.75734733e-05     7.02211248e-05 
   -2.42031289e-04     8.73707286e-05     4.67915129e-05 
   -2.41891133e-04     8.68236490e-05     2.80222419e-05 
   -2.41957674e-04     8.73453138e-05     8.95599034e-06 
   -2.41958161e-04     8.73454141e-05    -8.95501688e-06 
   -2.41891549e-04     8.68232054e-05    -2.80207916e-05 
   -2.42033425e-04     8.73706862e-05    -4.67900992e-05 
   -2.36340080e-04     8.75715871e-05    -7.02231460e-05 
   -2.32726490e-04     9.04066691e-05    -9.01802956e-05 
   -2.34659868e-04     7.06960869e-05     8.74501457e-05 
   -2.38282873e-04     7.09313197e-05     7.06188463e-05 
   -2.44185037e-04     6.90862514e-05     4.75543677e-05 
   -2.44830947e-04     6.95049571e-05     2.73641129e-05 
   -2.44665024e-04     6.97777629e-05     9.08928680e-06 
   -2.44665341e-04     6.97774387e-05    -9.08923355e-06 
   -2.44831650e-04     6.95049898e-05    -2.73636123e-05 
   -2.44184730e-04     6.90852393e-05    -4.75548081e-05 
   -2.38286615e-04     7.09284507e-05    -7.06173162e-05 
   -2.34659603e-04     7.06962427e-05    -8.74507733e-05 
   -2.40766790e-04     4.71834513e-05     8.72467518e-05 
   -2.43762650e-04     4.75428052e-05     6.93798111e-05 
   -2.50317759e-04     4.85298916e-05     4.84630721e-05 
   -2.50216647e-04     4.72149166e-05     2.80374648e-05 
   -2.49943290e-04     4.76864787e-05     8.68804327e-06 
   -2.49943492e-04     4.76865504e-05    -8.68859712e-06 
   -2.50216399e-04     4.72143584e-05    -2.80386125e-05 
   -2.50319652e-04     4.85301247e-05    -4.84640578e-05 
   -2.43761857e-04     4.75425198e-05    -6.93810865e-05 
   -2.40768937e-04     4.71823075e-05    -8.72497042e-05 
   -2.41480203e-04     2.76771478e-05     8.67197149e-05 
   -2.44663706e-04     2.74261870e-05     6.94924110e-05 
   -2.50185199e-04     2.79871846e-05     4.72623635e-05 
   -2.49968461e-04     2.87742255e-05     2.87420338e-05 
   -2.49166538e-04     2.75699197e-05     9.23699290e-06 
   -2.49166273e-04     2.75700114e-05    -9.23745654e-06 
   -2.49969524e-04     2.87755458e-05    -2.87436201e-05 
   -2.50184878e-04     2.79874349e-05    -4.72630040e-05 
   -2.44664276e-04     2.74252431e-05    -6.94946347e-05 
   -2.41481405e-04     2.76768621e-05    -8.67230929e-05 
   -2.41765331e-04     8.88673852e-06     8.72943705e-05 
   -2.44494216e-04     9.02748569e-06     6.98824374e-05 
   -2.49890320e-04     8.74955173e-06     4.76873458e-05 
   -2.49172694e-04     9.20957709e-06     2.76476366e-05 
   -2.48425037e-04     8.96657320e-06     9.01471042e-06 
   -2.48425192e-04     8.96811575e-06    -9.01618279e-06 
   -2.49172597e-04     9.20987211e-06    -2.76479242e-05 
   -2.49890557e-04     8.74929912e-06    -4.76885449e-05 
   -2.44494331e-04     9.02735817e-06    -6.98851371e-05 
   -2.41765970e-04     8.88660666e-06    -8.72981722e-05 
   -2.41765331e-04    -8.88673852e-06     8.72943705e-05 
   -2.44494216e-04    -9.02748569e-06     6.98824374e-05 
   -2.49890320e-04    -8.74955173e-06     4.76873458e-05 
   -2.49172694e-04    -9.20957709e-06     2.76476366e-05 
   -2.48425037e-04    -8.96657320e-06     9.01471042e-06 
   -2.48425192e-04    -8.96811575e-06    -9.01618279e-06 
   -2.49172597e-04    -9.20987211e-06    -2.76479242e-05 
   -2.49890557e-04    -8.74929912e-06    -4.76885449e-05 
   -2.44494331e-04    -9.02735817e-06    -6.98851371e-05 
   -2.41765970e-04    -8.88660666e-06    -8.72981722e-05 
   -2.41480203e-04    -2.76771478e-05     8.67197149e-05 
   -2.44663706e-04    -2.74261870e-05     6.94924110e-05 
   -2.50185199e-04    -2.79871846e-05     4.72623635e-05 
   -2.49968461e-04    -2.87742255e-05     2.87420338e-05 
   -2.49166538e-04    -2.75699197e-05     9.23699290e-06 
   -2.49166273e-04    -2.75700114e-05    -9.23745654e-06 
   -2.49969524e-04    -2.87755458e-05    -2.87436201e-05 
   -2.50184878e-04    -2.79874349e-05    -4.72630040e-05 
   -2.44664276e-04    -2.74252431e-05    -6.94946347e-05 
   -2.41481405e-04    -2.76768621e-05    -8.67230929e-05 
   -2.40766790e-04    -4.71834513e-05     8.72467518e-05 
   -2.43762650e-04    -4.75428052e-05     6.93798111e-05 
   -2.50317759e-04    -4.85298916e-05     4.84630721e-05 
   -2.50216647e-04    -4.72149166e-05     2.80374648e-05 
   -2.49943290e-04    -4.76864787e-05     8.68804327e-06 
   -2.49943492e-04    -4.76865504e-05    -8.68859712e-06 
   -2.50216399e-04    -4.72143584e-05    -2.80386125e-05 
   -2.50319652e-04    -4.85301247e-05    -4.84640578e-05 
   -2.43761857e-04    -4.75425198e-05    -6.93810865e-05 
   -2.40768937e-04    -4.71823075e-05    -8.72497042e-05 
   -2.34659868e-04    -7.06960869e-05     8.74501457e-05 
   -2.38282873e-04    -7.09313197e-05     7.06188463e-05 
   -2.44185037e-04    -6.90862514e-05     4.75543677e-05 
   -2.44830947e-04    -6.95049571e-05     2.73641129e-05 
   -2.44665024e-04    -6.97777629e-05     9.08928680e-06 
   -2.44665341e-04    -6.97774387e-05    -9.08923355e-06 
   -2.44831650e-04    -6.95049898e-05    -2.73636123e-05 
   -2.44184730e-04    -6.90852393e-05    -4.75548081e-05 
   -2.38286615e-04    -7.09284507e-05    -7.06173162e-05 
   -2.34659603e-04    -7.06962427e-05    -8.74507733e-05 
   -2.32739892e-04    -9.04106766e-05     9.01818520e-05 
   -2.36341990e-04    -8.75734733e-05     7.02211248e-05 
   -2.42031289e-04    -8.73707286e-05     4.67915129e-05 
   -2.41891133e-04    -8.68236490e-05     2.80222419e-05 
   -2.41957674e-04    -8.73453138e-05     8.95599034e-06 
   -2.41958161e-04    -8.73454141e-05    -8.95501688e-06 
   -2.41891549e-04    -8.68232054e-05    -2.80207916e-05 
   -2.42033425e-04    -8.73706862e-05    -4.67900992e-05 
   -2.36340080e-04    -8.75715871e-05    -7.02231460e-05 
   -2.32726490e-04    -9.04066691e-05    -9.01802956e-05 
   -1.66121201e-04     9.91044170e-05     9.83458128e-05 
   -1.71375940e-04     9.72288192e-05     7.63152203e-05 
   -1.72699303e-04     9.73586480e-05     5.42490228e-05 
   -1.74408067e-04     9.72342302e-05     3.04061133e-05 
   -1.75274698e-04     9.75366261e-05     9.05278057e-06 
   -1.75275069e-04     9.75367103e-05    -9.05211637e-06 
   -1.74408313e-04     9.72337774e-05    -3.04059333e-05 
   -1.72698671e-04     9.73574225e-05    -5.42503399e-05 
   -1.71375736e-04     9.72278116e-05    -7.63168714e-05 
   -1.66109782e-04     9.91030940e-05    -9.83467658e-05 
   -1.70573790e-04     7.57161298e-05     9.70560360e-05 
   -1.74601878e-04     7.72221347e-05     7.73623799e-05 
   -1.76507235e-04     7.53977237e-05     5.49901314e-05 
   -1.79072184e-04     7.59355462e-05     3.05523916e-05 
   -1.80042937e-04     7.61783727e-05     9.39145735e-06 
   -1.80042957e-04     7.61782521e-05    -9.39132700e-06 
   -1.79071742e-04     7.59352944e-05    -3.05531165e-05 
   -1.76507677e-04     7.53969566e-05    -5.49895976e-05 
   -1.74606286e-04     7.72203978e-05    -7.73620011e-05 
   -1.70573819e-04     7.57166703e-05    -9.70570500e-05 
   -1.71803354e-04     5.47429026e-05     9.73160447e-05 
   -1.76508289e-04     5.48905738e-05     7.54020858e-05 
   -1.78174186e-04     5.64381737e-05     5.65148912e-05 
   -1.80128449e-04     5.51563444e-05     3.11343883e-05 
   -1.80710907e-04     5.55731283e-05     9.12485693e-06 
   -1.80710589e-04     5.55732024e-05    -9.12565211e-06 
   -1.80128638e-04     5.51559864e-05    -3.11345358e-05 
   -1.78176985e-04     5.64372759e-05    -5.65151056e-05 
   -1.76509412e-04     5.48890326e-05    -7.54028467e-05 
   -1.71804401e-04     5.47429210e-05    -9.73170789e-05 
   -1.73904530e-04     3.03589113e-05     9.71878669e-05 
   -1.78907611e-04     3.04636543e-05     7.59487786e-05 
   -1.79949432e-04     3.10618617e-05     5.52811185e-05 
   -1.81432160e-04     3.18202373e-05     3.18301461e-05 
   -1.81902055e-04     3.03659738e-05     9.51111616e-06 
   -1.81902292e-04     3.03656378e-05    -9.51151323e-06 
   -1.81432858e-04     3.18213703e-05    -3.18321026e-05 
   -1.79949566e-04     3.10611677e-05    -5.52822333e-05 
   -1.78907578e-04     3.04634594e-05    -7.59504886e-05 
   -1.73906241e-04     3.03585855e-05    -9.71904233e-05 
   -1.75189340e-04     9.15070940e-06     9.74728791e-05 
   -1.79942593e-04     9.42892992e-06     7.61630848e-05 
   -1.80638401e-04     9.19161305e-06     5.56359373e-05 
   -1.81913242e-04     9.52024346e-06     3.04593658e-05 
   -1.82183397e-04     9.41649804e-06     9.41557230e-06 
   -1.82183745e-04     9.41826092e-06    -9.41681947e-06 
   -1.81913062e-04     9.51966431e-06    -3.04600694e-05 
   -1.80637706e-04     9.19179596e-06    -5.56376210e-05 
   -1.79942938e-04     9.42883385e-06    -7.61655217e-05 
   -1.75190493e-04     9.15042773e-06    -9.74759961e-05 
   -1.75189340e-04    -9.15070940e-06     9.74728791e-05 
   -1.79942593e-04    -9.42892992e-06     7.61630848e-05 
   -1.80638401e-04    -9.19161305e-06     5.56359373e-05 
   -1.81913242e-04    -9.52024346e-06     3.04593658e-05 
   -1.82183397e-04    -9.41649804e-06     9.41557230e-06 
   -1.82183745e-04    -9.41826092e-06    -9.41681947e-06 
   -1.81913062e-04    -9.51966431e-06    -3.04600694e-05 
   -1.80637706e-04    -9.19179596e-06    -5.56376210e-05 
   -1.79942938e-04    -9.42883385e-06    -7.61655217e-05 
   -1.75190493e-04    -9.15042773e-06    -9.74759961e-05 
   -1.73904530e-04    -3.03589113e-05     9.71878669e-05 
   -1.78907611e-04    -3.04636543e-05     7.59487786e-05 
   -1.79949432e-04    -3.10618617e-05     5.52811185e-05 
   -1.81432160e-04    -3.18202373e-05     3.18301461e-05 
   -1.81902055e-04    -3.03659738e-05     9.51111616e-06 
   -1.81902292e-04    -3.03656378e-05    -9.51151323e-06 
   -1.81432858e-04    -3.18213703e-05    -3.18321026e-05 
   -1.79949566e-04    -3.10611677e-05    -5.52822333e-05 
   -1.78907578e-04    -3.04634594e-05    -7.59504886e-05 
   -1.73906241e-04    -3.03585855e-05    -9.71904233e-05 
   -1.71803354e-04    -5.47429026e-05     9.73160447e-05 
   -1.76508289e-04    -5.48905738e-05     7.54020858e-05 
   -1.78174186e-04    -5.64381737e-05     5.65148912e-05 
   -1.80128449e-04    -5.51563444e-05     3.11343883e-05 
   -1.80710907e-04    -5.55731283e-05     9.12485693e-06 
   -1.80710589e-04    -5.55732024e-05    -9.12565211e-06 
   -1.80128638e-04    -5.51559864e-05    -3.11345358e-05 
   -1.78176985e-04    -5.64372759e-05    -5.65151056e-05 
   -1.76509412e-04    -5.48890326e-05    -7.54028467e-05 
   -1.71804401e-04    -5.47429210e-05    -9.73170789e-05 
   -1.70573790e-04    -7.57161298e-05     9.70560360e-05 
   -1.74601878e-04    -7.72221347e-05     7.73623799e-05 
   -1.76507235e-04    -7.53977237e-05     5.49901314e-05 
   -1.79072184e-04    -7.59355462e-05     3.05523916e-05 
   -1.80042937e-04    -7.61783727e-05     9.39145735e-06 
   -1.80042957e-04    -7.61782521e-05    -9.39132700e-06 
   -1.79071742e-04    -7.59352944e-05    -3.05531165e-05 
   -1.76507677e-04    -7.53969566e-05    -5.49895976e-05 
   -1.74606286e-04    -7.72203978e-05    -7.73620011e-05 
   -1.70573819e-04    -7.57166703e-05    -9.70570500e-05 
   -1.66121201e-04    -9.91044170e-05     9.83458128e-05 
   -1.71375940e-04    -9.72288192e-05     7.63152203e-05 
   -1.72699303e-04    -9.73586480e-05     5.42490228e-05 
   -1.74408067e-04    -9.72342302e-05     3.04061133e-05 
   -1.75274698e-04    -9.75366261e-05     9.05278057e-06 
   -1.75275069e-04    -9.75367103e-05    -9.05211637e-06 
   -1.74408313e-04    -9.72337774e-05    -3.04059333e-05 
   -1.72698671e-04    -9.73574225e-05    -5.42503399e-05 
   -1.71375736e-04    -9.72278116e-05    -7.63168714e-05 
   -1.66109782e-04    -9.91030940e-05    -9.83467658e-05 
   -9.99647080e-05     1.04449789e-04     1.03177682e-04 
   -1.03316484e-04     1.02164415e-04     8.23156199e-05 
   -1.03534935e-04     1.03921453e-04     5.96103399e-05 
   -1.04202407e-04     1.04925368e-04     3.57278935e-05 
   -1.07177479e-04     1.05443342e-04     1.13675330e-05 
   -1.07177449e-04     1.05443270e-04    -1.13678872e-05 
   -1.04201262e-04     1.04924860e-04    -3.57287761e-05 
   -1.03534256e-04     1.03920777e-04    -5.96118918e-05 
   -1.03315978e-04     1.02163835e-04    -8.23170014e-05 
   -9.99561101e-05     1.04449470e-04    -1.03179458e-04 
   -1.03390777e-04     8.17541455e-05     1.01951721e-04 
   -1.04886059e-04     8.35887981e-05     8.36490732e-05 
   -1.06413733e-04     8.30326659e-05     5.98738837e-05 
   -1.07348166e-04     8.42112928e-05     3.55323029e-05 
   -1.10855877e-04     8.46940497e-05     1.20638696e-05 
   -1.10855380e-04     8.46940578e-05    -1.20646964e-05 
   -1.07348064e-04     8.42109145e-05    -3.55323044e-05 
   -1.06414063e-04     8.30322716e-05    -5.98739833e-05 
   -1.04889661e-04     8.35881427e-05    -8.36493036e-05 
   -1.03390589e-04     8.17545584e-05    -1.01952892e-04 
   -1.03154191e-04     5.91678486e-05     1.03830020e-04 
   -1.06338490e-04     5.96273957e-05     8.29721979e-05 
   -1.07443955e-04     6.15694528e-05     6.16956758e-05 
   -1.07924847e-04     6.04052419e-05     3.63427782e-05 
   -1.11226309e-04     6.09026541e-05     1.15529125e-05 
   -1.11226188e-04     6.09023242e-05    -1.15536919e-05 
   -1.07924758e-04     6.04051136e-05    -3.63431382e-05 
   -1.07446319e-04     6.15692901e-05    -6.16963162e-05 
   -1.06339330e-04     5.96268199e-05    -8.29728954e-05 
   -1.03154259e-04     5.91686497e-05    -1.03831233e-04 
   -1.03812047e-04     3.55027352e-05     1.04898983e-04 
   -1.07223214e-04     3.53443009e-05     8.41709736e-05 
   -1.07897085e-04     3.61861484e-05     6.04524579e-05 
   -1.07847241e-04     3.67912081e-05     3.68844993e-05 
   -1.11101867e-04     3.56210652e-05     1.21388533e-05 
   -1.11101650e-04     3.56211977e-05    -1.21392539e-05 
   -1.07848428e-04     3.67910000e-05    -3.68855663e-05 
   -1.07897495e-04     3.61854671e-05    -6.04534572e-05 
   -1.07224289e-04     3.53433865e-05    -8.41720277e-05 
   -1.03812990e-04     3.55028328e-05    -1.04901024e-04 
   -1.07002190e-04     1.15576491e-05     1.05389164e-04 
   -1.10672190e-04     1.20064656e-05     8.47180959e-05 
   -1.11129395e-04     1.15415646e-05     6.09540045e-05 