# vtk DataFile Version 2.0 
generated by Lattice Boltzmann Method time =   1.61658075e+00
ASCII 
DATASET UNSTRUCTURED_GRID

POINTS   1000 FLOAT 
  0.00000000e+00   0.00000000e+00   0.00000000e+00 
  0.00000000e+00   0.00000000e+00   1.00000000e-01 
  0.00000000e+00   0.00000000e+00   2.00000000e-01 
  0.00000000e+00   0.00000000e+00   3.00000000e-01 
  0.00000000e+00   0.00000000e+00   4.00000000e-01 
  0.00000000e+00   0.00000000e+00   5.00000000e-01 
  0.00000000e+00   0.00000000e+00   6.00000000e-01 
  0.00000000e+00   0.00000000e+00   7.00000000e-01 
  0.00000000e+00   0.00000000e+00   8.00000000e-01 
  0.00000000e+00   0.00000000e+00   9.00000000e-01 
  0.00000000e+00   1.00000000e-01   0.00000000e+00 
  0.00000000e+00   1.00000000e-01   1.00000000e-01 
  0.00000000e+00   1.00000000e-01   2.00000000e-01 
  0.00000000e+00   1.00000000e-01   3.00000000e-01 
  0.00000000e+00   1.00000000e-01   4.00000000e-01 
  0.00000000e+00   1.00000000e-01   5.00000000e-01 
  0.00000000e+00   1.00000000e-01   6.00000000e-01 
  0.00000000e+00   1.00000000e-01   7.00000000e-01 
  0.00000000e+00   1.00000000e-01   8.00000000e-01 
  0.00000000e+00   1.00000000e-01   9.00000000e-01 
  0.00000000e+00   2.00000000e-01   0.00000000e+00 
  0.00000000e+00   2.00000000e-01   1.00000000e-01 
  0.00000000e+00   2.00000000e-01   2.00000000e-01 
  0.00000000e+00   2.00000000e-01   3.00000000e-01 
  0.00000000e+00   2.00000000e-01   4.00000000e-01 
  0.00000000e+00   2.00000000e-01   5.00000000e-01 
  0.00000000e+00   2.00000000e-01   6.00000000e-01 
  0.00000000e+00   2.00000000e-01   7.00000000e-01 
  0.00000000e+00   2.00000000e-01   8.00000000e-01 
  0.00000000e+00   2.00000000e-01   9.00000000e-01 
  0.00000000e+00   3.00000000e-01   0.00000000e+00 
  0.00000000e+00   3.00000000e-01   1.00000000e-01 
  0.00000000e+00   3.00000000e-01   2.00000000e-01 
  0.00000000e+00   3.00000000e-01   3.00000000e-01 
  0.00000000e+00   3.00000000e-01   4.00000000e-01 
  0.00000000e+00   3.00000000e-01   5.00000000e-01 
  0.00000000e+00   3.00000000e-01   6.00000000e-01 
  0.00000000e+00   3.00000000e-01   7.00000000e-01 
  0.00000000e+00   3.00000000e-01   8.00000000e-01 
  0.00000000e+00   3.00000000e-01   9.00000000e-01 
  0.00000000e+00   4.00000000e-01   0.00000000e+00 
  0.00000000e+00   4.00000000e-01   1.00000000e-01 
  0.00000000e+00   4.00000000e-01   2.00000000e-01 
  0.00000000e+00   4.00000000e-01   3.00000000e-01 
  0.00000000e+00   4.00000000e-01   4.00000000e-01 
  0.00000000e+00   4.00000000e-01   5.00000000e-01 
  0.00000000e+00   4.00000000e-01   6.00000000e-01 
  0.00000000e+00   4.00000000e-01   7.00000000e-01 
  0.00000000e+00   4.00000000e-01   8.00000000e-01 
  0.00000000e+00   4.00000000e-01   9.00000000e-01 
  0.00000000e+00   5.00000000e-01   0.00000000e+00 
  0.00000000e+00   5.00000000e-01   1.00000000e-01 
  0.00000000e+00   5.00000000e-01   2.00000000e-01 
  0.00000000e+00   5.00000000e-01   3.00000000e-01 
  0.00000000e+00   5.00000000e-01   4.00000000e-01 
  0.00000000e+00   5.00000000e-01   5.00000000e-01 
  0.00000000e+00   5.00000000e-01   6.00000000e-01 
  0.00000000e+00   5.00000000e-01   7.00000000e-01 
  0.00000000e+00   5.00000000e-01   8.00000000e-01 
  0.00000000e+00   5.00000000e-01   9.00000000e-01 
  0.00000000e+00   6.00000000e-01   0.00000000e+00 
  0.00000000e+00   6.00000000e-01   1.00000000e-01 
  0.00000000e+00   6.00000000e-01   2.00000000e-01 
  0.00000000e+00   6.00000000e-01   3.00000000e-01 
  0.00000000e+00   6.00000000e-01   4.00000000e-01 
  0.00000000e+00   6.00000000e-01   5.00000000e-01 
  0.00000000e+00   6.00000000e-01   6.00000000e-01 
  0.00000000e+00   6.00000000e-01   7.00000000e-01 
  0.00000000e+00   6.00000000e-01   8.00000000e-01 
  0.00000000e+00   6.00000000e-01   9.00000000e-01 
  0.00000000e+00   7.00000000e-01   0.00000000e+00 
  0.00000000e+00   7.00000000e-01   1.00000000e-01 
  0.00000000e+00   7.00000000e-01   2.00000000e-01 
  0.00000000e+00   7.00000000e-01   3.00000000e-01 
  0.00000000e+00   7.00000000e-01   4.00000000e-01 
  0.00000000e+00   7.00000000e-01   5.00000000e-01 
  0.00000000e+00   7.00000000e-01   6.00000000e-01 
  0.00000000e+00   7.00000000e-01   7.00000000e-01 
  0.00000000e+00   7.00000000e-01   8.00000000e-01 
  0.00000000e+00   7.00000000e-01   9.00000000e-01 
  0.00000000e+00   8.00000000e-01   0.00000000e+00 
  0.00000000e+00   8.00000000e-01   1.00000000e-01 
  0.00000000e+00   8.00000000e-01   2.00000000e-01 
  0.00000000e+00   8.00000000e-01   3.00000000e-01 
  0.00000000e+00   8.00000000e-01   4.00000000e-01 
  0.00000000e+00   8.00000000e-01   5.00000000e-01 
  0.00000000e+00   8.00000000e-01   6.00000000e-01 
  0.00000000e+00   8.00000000e-01   7.00000000e-01 
  0.00000000e+00   8.00000000e-01   8.00000000e-01 
  0.00000000e+00   8.00000000e-01   9.00000000e-01 
  0.00000000e+00   9.00000000e-01   0.00000000e+00 
  0.00000000e+00   9.00000000e-01   1.00000000e-01 
  0.00000000e+00   9.00000000e-01   2.00000000e-01 
  0.00000000e+00   9.00000000e-01   3.00000000e-01 
  0.00000000e+00   9.00000000e-01   4.00000000e-01 
  0.00000000e+00   9.00000000e-01   5.00000000e-01 
  0.00000000e+00   9.00000000e-01   6.00000000e-01 
  0.00000000e+00   9.00000000e-01   7.00000000e-01 
  0.00000000e+00   9.00000000e-01   8.00000000e-01 
  0.00000000e+00   9.00000000e-01   9.00000000e-01 
  1.00000000e-01   0.00000000e+00   0.00000000e+00 
  1.00000000e-01   0.00000000e+00   1.00000000e-01 
  1.00000000e-01   0.00000000e+00   2.00000000e-01 
  1.00000000e-01   0.00000000e+00   3.00000000e-01 
  1.00000000e-01   0.00000000e+00   4.00000000e-01 
  1.00000000e-01   0.00000000e+00   5.00000000e-01 
  1.00000000e-01   0.00000000e+00   6.00000000e-01 
  1.00000000e-01   0.00000000e+00   7.00000000e-01 
  1.00000000e-01   0.00000000e+00   8.00000000e-01 
  1.00000000e-01   0.00000000e+00   9.00000000e-01 
  1.00000000e-01   1.00000000e-01   0.00000000e+00 
  1.00000000e-01   1.00000000e-01   1.00000000e-01 
  1.00000000e-01   1.00000000e-01   2.00000000e-01 
  1.00000000e-01   1.00000000e-01   3.00000000e-01 
  1.00000000e-01   1.00000000e-01   4.00000000e-01 
  1.00000000e-01   1.00000000e-01   5.00000000e-01 
  1.00000000e-01   1.00000000e-01   6.00000000e-01 
  1.00000000e-01   1.00000000e-01   7.00000000e-01 
  1.00000000e-01   1.00000000e-01   8.00000000e-01 
  1.00000000e-01   1.00000000e-01   9.00000000e-01 
  1.00000000e-01   2.00000000e-01   0.00000000e+00 
  1.00000000e-01   2.00000000e-01   1.00000000e-01 
  1.00000000e-01   2.00000000e-01   2.00000000e-01 
  1.00000000e-01   2.00000000e-01   3.00000000e-01 
  1.00000000e-01   2.00000000e-01   4.00000000e-01 
  1.00000000e-01   2.00000000e-01   5.00000000e-01 
  1.00000000e-01   2.00000000e-01   6.00000000e-01 
  1.00000000e-01   2.00000000e-01   7.00000000e-01 
  1.00000000e-01   2.00000000e-01   8.00000000e-01 
  1.00000000e-01   2.00000000e-01   9.00000000e-01 
  1.00000000e-01   3.00000000e-01   0.00000000e+00 
  1.00000000e-01   3.00000000e-01   1.00000000e-01 
  1.00000000e-01   3.00000000e-01   2.00000000e-01 
  1.00000000e-01   3.00000000e-01   3.00000000e-01 
  1.00000000e-01   3.00000000e-01   4.00000000e-01 
  1.00000000e-01   3.00000000e-01   5.00000000e-01 
  1.00000000e-01   3.00000000e-01   6.00000000e-01 
  1.00000000e-01   3.00000000e-01   7.00000000e-01 
  1.00000000e-01   3.00000000e-01   8.00000000e-01 
  1.00000000e-01   3.00000000e-01   9.00000000e-01 
  1.00000000e-01   4.00000000e-01   0.00000000e+00 
  1.00000000e-01   4.00000000e-01   1.00000000e-01 
  1.00000000e-01   4.00000000e-01   2.00000000e-01 
  1.00000000e-01   4.00000000e-01   3.00000000e-01 
  1.00000000e-01   4.00000000e-01   4.00000000e-01 
  1.00000000e-01   4.00000000e-01   5.00000000e-01 
  1.00000000e-01   4.00000000e-01   6.00000000e-01 
  1.00000000e-01   4.00000000e-01   7.00000000e-01 
  1.00000000e-01   4.00000000e-01   8.00000000e-01 
  1.00000000e-01   4.00000000e-01   9.00000000e-01 
  1.00000000e-01   5.00000000e-01   0.00000000e+00 
  1.00000000e-01   5.00000000e-01   1.00000000e-01 
  1.00000000e-01   5.00000000e-01   2.00000000e-01 
  1.00000000e-01   5.00000000e-01   3.00000000e-01 
  1.00000000e-01   5.00000000e-01   4.00000000e-01 
  1.00000000e-01   5.00000000e-01   5.00000000e-01 
  1.00000000e-01   5.00000000e-01   6.00000000e-01 
  1.00000000e-01   5.00000000e-01   7.00000000e-01 
  1.00000000e-01   5.00000000e-01   8.00000000e-01 
  1.00000000e-01   5.00000000e-01   9.00000000e-01 
  1.00000000e-01   6.00000000e-01   0.00000000e+00 
  1.00000000e-01   6.00000000e-01   1.00000000e-01 
  1.00000000e-01   6.00000000e-01   2.00000000e-01 
  1.00000000e-01   6.00000000e-01   3.00000000e-01 
  1.00000000e-01   6.00000000e-01   4.00000000e-01 
  1.00000000e-01   6.00000000e-01   5.00000000e-01 
  1.00000000e-01   6.00000000e-01   6.00000000e-01 
  1.00000000e-01   6.00000000e-01   7.00000000e-01 
  1.00000000e-01   6.00000000e-01   8.00000000e-01 
  1.00000000e-01   6.00000000e-01   9.00000000e-01 
  1.00000000e-01   7.00000000e-01   0.00000000e+00 
  1.00000000e-01   7.00000000e-01   1.00000000e-01 
  1.00000000e-01   7.00000000e-01   2.00000000e-01 
  1.00000000e-01   7.00000000e-01   3.00000000e-01 
  1.00000000e-01   7.00000000e-01   4.00000000e-01 
  1.00000000e-01   7.00000000e-01   5.00000000e-01 
  1.00000000e-01   7.00000000e-01   6.00000000e-01 
  1.00000000e-01   7.00000000e-01   7.00000000e-01 
  1.00000000e-01   7.00000000e-01   8.00000000e-01 
  1.00000000e-01   7.00000000e-01   9.00000000e-01 
  1.00000000e-01   8.00000000e-01   0.00000000e+00 
  1.00000000e-01   8.00000000e-01   1.00000000e-01 
  1.00000000e-01   8.00000000e-01   2.00000000e-01 
  1.00000000e-01   8.00000000e-01   3.00000000e-01 
  1.00000000e-01   8.00000000e-01   4.00000000e-01 
  1.00000000e-01   8.00000000e-01   5.00000000e-01 
  1.00000000e-01   8.00000000e-01   6.00000000e-01 
  1.00000000e-01   8.00000000e-01   7.00000000e-01 
  1.00000000e-01   8.00000000e-01   8.00000000e-01 
[...]
POINT_DATA   1000
FIELD solution 1
u 3   1000 DOUBLE
   -2.05007490e-04     2.88284560e-05     3.13663880e-05 
   -1.76685455e-04     3.40882605e-05     1.47142563e-05 
   -1.66895807e-04     3.73684032e-05     2.70472035e-05 
   -1.57332715e-04     4.16366136e-05     1.49864519e-05 
   -1.54270245e-04     4.18657468e-05     1.21338599e-05 
   -1.54271405e-04     4.18646887e-05    -1.21578801e-05 
   -1.57333197e-04     4.16355136e-05    -1.50068115e-05 
   -1.66899340e-04     3.73656167e-05    -2.70703772e-05 
   -1.76686860e-04     3.40869761e-05    -1.47334212e-05 
   -2.04965423e-04     2.88101724e-05    -3.13811038e-05 
   -1.78707226e-04     1.96510692e-05     3.34057429e-05 
   -1.55281532e-04     2.05965327e-05     2.19653846e-05 
   -1.43805321e-04     2.55035668e-05     2.22824633e-05 
   -1.34470299e-04     2.78912781e-05     1.74528687e-05 
   -1.30961897e-04     3.12998165e-05     9.25161955e-06 
   -1.30962103e-04     3.13023850e-05    -9.26689033e-06 
   -1.34471863e-04     2.78860354e-05    -1.74647523e-05 
   -1.43808978e-04     2.55057696e-05    -2.22962506e-05 
   -1.55278903e-04     2.05989037e-05    -2.19836858e-05 
   -1.78718081e-04     1.96632935e-05    -3.34153780e-05 
   -1.65881345e-04     1.76673044e-05     3.77816584e-05 
   -1.43440549e-04     1.98480403e-05     2.35263929e-05 
   -1.31956191e-04     2.47563311e-05     2.73515597e-05 
   -1.21501220e-04     2.78066091e-05     2.03165990e-05 
   -1.17096653e-04     3.18399447e-05     1.01978493e-05 
   -1.17097227e-04     3.18400193e-05    -1.02123946e-05 
   -1.21502542e-04     2.78053238e-05    -2.03282227e-05 
   -1.31954841e-04     2.47681155e-05    -2.73769446e-05 
   -1.43445087e-04     1.98493089e-05    -2.35388387e-05 
   -1.65888340e-04     1.76713269e-05    -3.77939390e-05 
   -1.56970487e-04     1.94322832e-05     4.25333965e-05 
   -1.33963908e-04     1.74334784e-05     2.98232768e-05 
   -1.21159911e-04     2.13880302e-05     2.86545042e-05 
   -1.10099994e-04     2.39709898e-05     2.38921708e-05 
   -1.05579455e-04     2.57318646e-05     9.87686244e-06 
   -1.05579817e-04     2.57345018e-05    -9.88925776e-06 
   -1.10099132e-04     2.39790612e-05    -2.39143649e-05 
   -1.21162379e-04     2.13904969e-05    -2.86660523e-05 
   -1.33968089e-04     1.74343564e-05    -2.98384644e-05 
   -1.56977330e-04     1.94443205e-05    -4.25463775e-05 
   -1.52965339e-04     5.60780201e-06     4.31453000e-05 
   -1.29927817e-04     7.20938073e-06     3.13140072e-05 
   -1.16381639e-04     7.51501303e-06     3.17212237e-05 
   -1.05248845e-04     9.55229355e-06     2.41725164e-05 
   -1.00571807e-04     9.82935185e-06     9.83720633e-06 
   -1.00571500e-04     9.84218281e-06    -9.86204906e-06 
   -1.05249954e-04     9.55396798e-06    -2.41856008e-05 
   -1.16384096e-04     7.51373699e-06    -3.17348708e-05 
   -1.29932223e-04     7.21105772e-06    -3.13293472e-05 
   -1.52972080e-04     5.60802225e-06    -4.31578249e-05 
   -1.52965339e-04    -5.60780201e-06     4.31453000e-05 
   -1.29927817e-04    -7.20938073e-06     3.13140072e-05 
   -1.16381639e-04    -7.51501303e-06     3.17212237e-05 
   -1.05248845e-04    -9.55229355e-06     2.41725164e-05 
   -1.00571807e-04    -9.82935185e-06     9.83720633e-06 
   -1.00571500e-04    -9.84218281e-06    -9.86204906e-06 
   -1.05249954e-04    -9.55396798e-06    -2.41856008e-05 
   -1.16384096e-04    -7.51373699e-06    -3.17348708e-05 
   -1.29932223e-04    -7.21105772e-06    -3.13293472e-05 
   -1.52972080e-04    -5.60802225e-06    -4.31578249e-05 
   -1.56970487e-04    -1.94322832e-05     4.25333965e-05 
   -1.33963908e-04    -1.74334784e-05     2.98232768e-05 
   -1.21159911e-04    -2.13880302e-05     2.86545042e-05 
   -1.10099994e-04    -2.39709898e-05     2.38921708e-05 
   -1.05579455e-04    -2.57318646e-05     9.87686244e-06 
   -1.05579817e-04    -2.57345018e-05    -9.88925776e-06 
   -1.10099132e-04    -2.39790612e-05    -2.39143649e-05 
   -1.21162379e-04    -2.13904969e-05    -2.86660523e-05 
   -1.33968089e-04    -1.74343564e-05    -2.98384644e-05 
   -1.56977330e-04    -1.94443205e-05    -4.25463775e-05 
   -1.65881345e-04    -1.76673044e-05     3.77816584e-05 
   -1.43440549e-04    -1.98480403e-05     2.35263929e-05 
   -1.31956191e-04    -2.47563311e-05     2.73515597e-05 
   -1.21501220e-04    -2.78066091e-05     2.03165990e-05 
   -1.17096653e-04    -3.18399447e-05     1.01978493e-05 
   -1.17097227e-04    -3.18400193e-05    -1.02123946e-05 
   -1.21502542e-04    -2.78053238e-05    -2.03282227e-05 
   -1.31954841e-04    -2.47681155e-05    -2.73769446e-05 
   -1.43445087e-04    -1.98493089e-05    -2.35388387e-05 
   -1.65888340e-04    -1.76713269e-05    -3.77939390e-05 
   -1.78707226e-04    -1.96510692e-05     3.34057429e-05 
   -1.55281532e-04    -2.05965327e-05     2.19653846e-05 
   -1.43805321e-04    -2.55035668e-05     2.22824633e-05 
   -1.34470299e-04    -2.78912781e-05     1.74528687e-05 
   -1.30961897e-04    -3.12998165e-05     9.25161955e-06 
   -1.30962103e-04    -3.13023850e-05    -9.26689033e-06 
   -1.34471863e-04    -2.78860354e-05    -1.74647523e-05 
   -1.43808978e-04    -2.55057696e-05    -2.22962506e-05 
   -1.55278903e-04    -2.05989037e-05    -2.19836858e-05 
   -1.78718081e-04    -1.96632935e-05    -3.34153780e-05 
   -2.05007490e-04    -2.88284560e-05     3.13663880e-05 
   -1.76685455e-04    -3.40882605e-05     1.47142563e-05 
   -1.66895807e-04    -3.73684032e-05     2.70472035e-05 
   -1.57332715e-04    -4.16366136e-05     1.49864519e-05 
   -1.54270245e-04    -4.18657468e-05     1.21338599e-05 
   -1.54271405e-04    -4.18646887e-05    -1.21578801e-05 
   -1.57333197e-04    -4.16355136e-05    -1.50068115e-05 
   -1.66899340e-04    -3.73656167e-05    -2.70703772e-05 
   -1.76686860e-04    -3.40869761e-05    -1.47334212e-05 
   -2.04965423e-04    -2.88101724e-05    -3.13811038e-05 
   -1.50652431e-04     1.12086807e-05     1.51499215e-05 
   -1.45528193e-04     1.68299874e-05     1.18229046e-05 
   -1.28685627e-04     2.04191751e-05     1.40087523e-05 
   -1.22697811e-04     2.48050989e-05     1.19787596e-05 
   -1.14350273e-04     2.56378765e-05     6.77127682e-06 
   -1.14345763e-04     2.56374323e-05    -6.78034746e-06 
   -1.22706336e-04     2.48052160e-05    -1.19854965e-05 
   -1.28683057e-04     2.04176161e-05    -1.40160773e-05 
   -1.45541334e-04     1.68274869e-05    -1.18289885e-05 
   -1.50633002e-04     1.11998971e-05    -1.51471917e-05 
   -1.37383565e-04     1.36704384e-05     1.66601160e-05 
   -1.28464610e-04     1.32836550e-05     2.00315599e-05 
   -1.15121790e-04     1.87855016e-05     1.30640975e-05 
   -1.08378953e-04     2.00340365e-05     1.41132330e-05 
   -1.00689237e-04     2.32579423e-05     4.40139215e-06 
   -1.00684975e-04     2.32629617e-05    -4.40602019e-06 
   -1.08386199e-04     2.00270471e-05    -1.41195701e-05 
   -1.15116821e-04     1.87897003e-05    -1.30662466e-05 
   -1.28481923e-04     1.32724964e-05    -2.00395547e-05 
   -1.37386000e-04     1.36803186e-05    -1.66608687e-05 
   -1.31671005e-04     8.72781863e-06     2.07832268e-05 
   -1.17563134e-04     1.38949795e-05     1.60933085e-05 
   -1.05559301e-04     1.64443016e-05     1.91261151e-05 
   -9.48568159e-05     2.05856813e-05     1.49739731e-05 
   -8.74982336e-05     2.33498036e-05     7.16719385e-06 
   -8.74962463e-05     2.33482208e-05    -7.17296028e-06 
   -9.48599508e-05     2.05857013e-05    -1.49794538e-05 
   -1.05559541e-04     1.64401977e-05    -1.91302759e-05 
   -1.17567613e-04     1.38965947e-05    -1.60974094e-05 
   -1.31678858e-04     8.72540470e-06    -2.07888606e-05 
   -1.20067676e-04     1.40700370e-05     2.55258657e-05 
   -1.06198528e-04     1.16355198e-05     2.29061288e-05 
   -9.44870186e-05     1.57904556e-05     2.07713672e-05 
   -8.34510247e-05     1.77215420e-05     1.81943801e-05 
   -7.63272203e-05     1.94366089e-05     6.73024593e-06 
   -7.63249712e-05     1.94392302e-05    -6.73541467e-06 
   -8.34572226e-05     1.77207798e-05    -1.82019260e-05 
   -9.44861884e-05     1.57941979e-05    -2.07754656e-05 
   -1.06202223e-04     1.16352182e-05    -2.29162302e-05 
   -1.20071920e-04     1.40793955e-05    -2.55330951e-05 
   -1.14923991e-04     3.20115351e-06     2.67001060e-05 
   -1.00441938e-04     5.15880256e-06     2.28930804e-05 
   -8.77950841e-05     4.96361826e-06     2.35779805e-05 
   -7.58145878e-05     7.25839222e-06     1.81893206e-05 
   -6.91523855e-05     7.20349305e-06     7.13488732e-06 
   -6.91512096e-05     7.20436108e-06    -7.14289207e-06 
   -7.58158931e-05     7.25985623e-06    -1.81957905e-05 
   -8.77955279e-05     4.96016400e-06    -2.35847889e-05 
   -1.00446319e-04     5.15923888e-06    -2.29011176e-05 
   -1.14928892e-04     3.19793842e-06    -2.67070452e-05 
   -1.14923991e-04    -3.20115351e-06     2.67001060e-05 
   -1.00441938e-04    -5.15880256e-06     2.28930804e-05 
   -8.77950841e-05    -4.96361826e-06     2.35779805e-05 
   -7.58145878e-05    -7.25839222e-06     1.81893206e-05 
   -6.91523855e-05    -7.20349305e-06     7.13488732e-06 
   -6.91512096e-05    -7.20436108e-06    -7.14289207e-06 
   -7.58158931e-05    -7.25985623e-06    -1.81957905e-05 
   -8.77955279e-05    -4.96016400e-06    -2.35847889e-05 
   -1.00446319e-04    -5.15923888e-06    -2.29011176e-05 
   -1.14928892e-04    -3.19793842e-06    -2.67070452e-05 
   -1.20067676e-04    -1.40700370e-05     2.55258657e-05 
   -1.06198528e-04    -1.16355198e-05     2.29061288e-05 
   -9.44870186e-05    -1.57904556e-05     2.07713672e-05 
   -8.34510247e-05    -1.77215420e-05     1.81943801e-05 
   -7.63272203e-05    -1.94366089e-05     6.73024593e-06 
   -7.63249712e-05    -1.94392302e-05    -6.73541467e-06 
   -8.34572226e-05    -1.77207798e-05    -1.82019260e-05 
   -9.44861884e-05    -1.57941979e-05    -2.07754656e-05 
   -1.06202223e-04    -1.16352182e-05    -2.29162302e-05 
   -1.20071920e-04    -1.40793955e-05    -2.55330951e-05 
   -1.31671005e-04    -8.72781863e-06     2.07832268e-05 
   -1.17563134e-04    -1.38949795e-05     1.60933085e-05 
   -1.05559301e-04    -1.64443016e-05     1.91261151e-05 
   -9.48568159e-05    -2.05856813e-05     1.49739731e-05 
   -8.74982336e-05    -2.33498036e-05     7.16719385e-06 
   -8.74962463e-05    -2.33482208e-05    -7.17296028e-06 
   -9.48599508e-05    -2.05857013e-05    -1.49794538e-05 
   -1.05559541e-04    -1.64401977e-05    -1.91302759e-05 
   -1.17567613e-04    -1.38965947e-05    -1.60974094e-05 
   -1.31678858e-04    -8.72540470e-06    -2.07888606e-05 
   -1.37383565e-04    -1.36704384e-05     1.66601160e-05 
   -1.28464610e-04    -1.32836550e-05     2.00315599e-05 
   -1.15121790e-04    -1.87855016e-05     1.30640975e-05 
   -1.08378953e-04    -2.00340365e-05     1.41132330e-05 
   -1.00689237e-04    -2.32579423e-05     4.40139215e-06 
   -1.00684975e-04    -2.32629617e-05    -4.40602019e-06 
   -1.08386199e-04    -2.00270471e-05    -1.41195701e-05 
   -1.15116821e-04    -1.87897003e-05    -1.30662466e-05 
   -1.28481923e-04    -1.32724964e-05    -2.00395547e-05 
   -1.37386000e-04    -1.36803186e-05    -1.66608687e-05 
   -1.50652431e-04    -1.12086807e-05     1.51499215e-05 
   -1.45528193e-04    -1.68299874e-05     1.18229046e-05 
   -1.28685627e-04    -2.04191751e-05     1.40087523e-05 
   -1.22697811e-04    -2.48050989e-05     1.19787596e-05 
   -1.14350273e-04    -2.56378765e-05     6.77127682e-06 
   -1.14345763e-04    -2.56374323e-05    -6.78034746e-06 
   -1.22706336e-04    -2.48052160e-05    -1.19854965e-05 
   -1.28683057e-04    -2.04176161e-05    -1.40160773e-05 
   -1.45541334e-04    -1.68274869e-05    -1.18289885e-05 
   -1.50633002e-04    -1.11998971e-05    -1.51471917e-05 
   -1.22097605e-04     5.94080040e-06     9.22422097e-06 
   -1.06711340e-04     5.33145626e-06    -3.29559788e-07 
   -9.99147924e-05     1.20834419e-05     6.20895550e-06 
   -8.99786295e-05     1.60042946e-05     4.50931346e-06 
   -8.33911669e-05     1.77841080e-05     4.36152388e-06 
   -8.33914887e-05     1.77830661e-05    -4.36994266e-06 
   -8.99797265e-05     1.60039227e-05    -4.51630008e-06 
   -9.99176267e-05     1.20806771e-05    -6.21807983e-06 
   -1.06711836e-04     5.33058379e-06     3.24518928e-07 
   -1.22087477e-04     5.93974152e-06    -9.22990065e-06 
   -1.10377632e-04    -2.29745347e-06     5.09981152e-06 
   -9.58798434e-05     5.55931606e-06     5.12570958e-06 
   -8.82484914e-05     7.40320499e-06     5.80818741e-06 
   -7.81007776e-05     1.24453773e-05     4.84674816e-06 
   -7.13353676e-05     1.52853298e-05     3.00912690e-06 
   -7.13365637e-05     1.52877829e-05    -3.01291785e-06 
   -7.81002513e-05     1.24408639e-05    -4.85060473e-06 
   -8.82538806e-05     7.40361537e-06    -5.81036442e-06 
   -9.58871401e-05     5.55424890e-06    -5.12522269e-06 
   -1.10386341e-04    -2.29729127e-06    -5.10226581e-06 
   -9.87058516e-05     2.34542645e-06     1.25750534e-05 
   -8.60348232e-05     4.41329385e-06     7.34497315e-06 
   -7.66286658e-05     9.62747537e-06     1.16023436e-05 
   -6.70725413e-05     1.18101084e-05     8.29132643e-06 
   -5.95553649e-05     1.52561185e-05     4.39756363e-06 
   -5.95549890e-05     1.52552855e-05    -4.40330900e-06 
   -6.70733597e-05     1.18103524e-05    -8.29484819e-06 
   -7.66379109e-05     9.62397697e-06    -1.16050582e-05 
   -8.60380590e-05     4.41319571e-06    -7.34811438e-06 
   -9.87116922e-05     2.34708040e-06    -1.25776692e-05 
   -8.96790662e-05     5.78929850e-06     1.67856279e-05 
   -7.81920238e-05     4.90411286e-06     1.37885907e-05 
   -6.71319926e-05     8.53063782e-06     1.22069211e-05 
   -5.84120822e-05     1.21776018e-05     1.22561693e-05 
   -5.04172199e-05     1.36530202e-05     4.12129750e-06 
   -5.04178415e-05     1.36546142e-05    -4.12616825e-06 
   -5.84144001e-05     1.21769453e-05    -1.22632896e-05 
   -6.71340115e-05     8.53107651e-06    -1.22114011e-05 
   -7.81938962e-05     4.90378491e-06    -1.37949018e-05 
   -8.96834152e-05     5.79351183e-06    -1.67914815e-05 
   -8.34279982e-05     1.65411985e-06     1.87656907e-05 
   -7.12691418e-05     1.62266892e-06     1.56277638e-05 
   -5.94878860e-05     2.65781110e-06     1.53120278e-05 
   -5.04394689e-05     4.34641901e-06     1.25580369e-05 
   -4.25320574e-05     4.99701807e-06     4.59808132e-06 
   -4.25328935e-05     4.99878950e-06    -4.60468100e-06 
   -5.04385462e-05     4.34650902e-06    -1.25646952e-05 
   -5.94866221e-05     2.65703041e-06    -1.53183235e-05 
   -7.12699068e-05     1.62324942e-06    -1.56344171e-05 
   -8.34297050e-05     1.65451937e-06    -1.87713587e-05 
   -8.34279982e-05    -1.65411985e-06     1.87656907e-05 
   -7.12691418e-05    -1.62266892e-06     1.56277638e-05 
   -5.94878860e-05    -2.65781110e-06     1.53120278e-05 
   -5.04394689e-05    -4.34641901e-06     1.25580369e-05 
   -4.25320574e-05    -4.99701807e-06     4.59808132e-06 
   -4.25328935e-05    -4.99878950e-06    -4.60468100e-06 
   -5.04385462e-05    -4.34650902e-06    -1.25646952e-05 
   -5.94866221e-05    -2.65703041e-06    -1.53183235e-05 
   -7.12699068e-05    -1.62324942e-06    -1.56344171e-05 
   -8.34297050e-05    -1.65451937e-06    -1.87713587e-05 
   -8.96790662e-05    -5.78929850e-06     1.67856279e-05 
   -7.81920238e-05    -4.90411286e-06     1.37885907e-05 
   -6.71319926e-05    -8.53063782e-06     1.22069211e-05 
   -5.84120822e-05    -1.21776018e-05     1.22561693e-05 
   -5.04172199e-05    -1.36530202e-05     4.12129750e-06 
   -5.04178415e-05    -1.36546142e-05    -4.12616825e-06 
   -5.84144001e-05    -1.21769453e-05    -1.22632896e-05 
   -6.71340115e-05    -8.53107651e-06    -1.22114011e-05 
   -7.81938962e-05    -4.90378491e-06    -1.37949018e-05 
   -8.96834152e-05    -5.79351183e-06    -1.67914815e-05 
   -9.87058516e-05    -2.34542645e-06     1.25750534e-05 
   -8.60348232e-05    -4.41329385e-06     7.34497315e-06 
   -7.66286658e-05    -9.62747537e-06     1.16023436e-05 
   -6.70725413e-05    -1.18101084e-05     8.29132643e-06 
   -5.95553649e-05    -1.52561185e-05     4.39756363e-06 
   -5.95549890e-05    -1.52552855e-05    -4.40330900e-06 
   -6.70733597e-05    -1.18103524e-05    -8.29484819e-06 
   -7.66379109e-05    -9.62397697e-06    -1.16050582e-05 
   -8.60380590e-05    -4.41319571e-06    -7.34811438e-06 
   -9.87116922e-05    -2.34708040e-06    -1.25776692e-05 
   -1.10377632e-04     2.29745347e-06     5.09981152e-06 
   -9.58798434e-05    -5.55931606e-06     5.12570958e-06 
   -8.82484914e-05    -7.40320499e-06     5.80818741e-06 
   -7.81007776e-05    -1.24453773e-05     4.84674816e-06 
   -7.13353676e-05    -1.52853298e-05     3.00912690e-06 
   -7.13365637e-05    -1.52877829e-05    -3.01291785e-06 
   -7.81002513e-05    -1.24408639e-05    -4.85060473e-06 
   -8.82538806e-05    -7.40361537e-06    -5.81036442e-06 
   -9.58871401e-05    -5.55424890e-06    -5.12522269e-06 
   -1.10386341e-04     2.29729127e-06    -5.10226581e-06 
   -1.22097605e-04    -5.94080040e-06     9.22422097e-06 
   -1.06711340e-04    -5.33145626e-06    -3.29559788e-07 
   -9.99147924e-05    -1.20834419e-05     6.20895550e-06 
   -8.99786295e-05    -1.60042946e-05     4.50931346e-06 
   -8.33911669e-05    -1.77841080e-05     4.36152388e-06 
   -8.33914887e-05    -1.77830661e-05    -4.36994266e-06 
   -8.99797265e-05    -1.60039227e-05    -4.51630008e-06 
   -9.99176267e-05    -1.20806771e-05    -6.21807983e-06 
   -1.06711836e-04    -5.33058379e-06     3.24518928e-07 
   -1.22087477e-04    -5.93974152e-06    -9.22990065e-06 
   -7.06497950e-05     3.11947080e-06     7.35500442e-06 
   -6.81350438e-05     2.77989855e-06    -3.32322077e-06 
   -5.65811217e-05     8.71625063e-06    -2.01974974e-06 
   -5.16702771e-05     1.50813095e-05     5.75766075e-07 
   -4.82636537e-05     1.70649750e-05     5.06681408e-07 
   -4.82609978e-05     1.70644866e-05    -5.14399764e-07 
   -5.16740698e-05     1.50805752e-05    -5.84699773e-07 
   -5.65805672e-05     8.71479935e-06     2.01084836e-06 
   -6.81406463e-05     2.77901733e-06     3.31202141e-06 
   -7.06340368e-05     3.11742558e-06    -7.36088463e-06 
   -6.33843636e-05    -5.56635636e-06     3.10930133e-06 
   -5.89603750e-05     1.10067363e-06     2.46069246e-06 
   -4.84186809e-05     1.45274846e-06    -1.74949626e-06 
   -4.24607555e-05     8.06689812e-06     2.26012906e-07 
   -3.92884685e-05     1.05088036e-05    -6.72973297e-07 
   -3.92863366e-05     1.05108200e-05     6.68889923e-07 
   -4.24642204e-05     8.06455666e-06    -2.30672581e-07 
   -4.84200391e-05     1.45404051e-06     1.74772326e-06 
   -5.89718942e-05     1.09880336e-06    -2.46800260e-06 
   -6.33852640e-05    -5.55903810e-06    -3.11286274e-06 
   -5.64792127e-05    -4.29722449e-06     9.19729022e-06 
   -4.96557669e-05    -2.78362540e-06     2.62916467e-06 
   -4.11207706e-05     3.60064527e-06     4.35648045e-06 
   -3.41813257e-05     5.47930542e-06     3.20340508e-06 
   -3.04695585e-05     9.28449956e-06     6.17543150e-07 
   -3.04681370e-05     9.28342712e-06    -6.21732066e-07 
   -3.41845326e-05     5.47919693e-06    -3.20774272e-06 
   -4.11261683e-05     3.59834352e-06    -4.35877613e-06 
   -4.96610959e-05    -2.78483467e-06    -2.63574301e-06 
   -5.64808499e-05    -4.29393166e-06    -9.20115591e-06 
   -5.03144807e-05     5.05519410e-07     1.58711806e-05 
   -4.29358307e-05    -1.28490687e-06     8.31451517e-06 
   -3.37339451e-05     2.77531196e-06     5.91190082e-06 
   -2.72373882e-05     7.26293016e-06     7.04423063e-06 
   -2.33932210e-05     7.76457488e-06     1.62679897e-06 
   -2.33921436e-05     7.76602379e-06    -1.63139651e-06 
   -2.72418543e-05     7.26076854e-06    -7.05061764e-06 
   -3.37349365e-05     2.77575576e-06    -5.91686335e-06 
   -4.29403893e-05    -1.28694529e-06    -8.32135962e-06 
   -5.03162626e-05     5.09513731e-07    -1.58754902e-05 
   -4.88767406e-05    -7.79890201e-07     1.79948430e-05 
   -3.97896802e-05    -6.58018673e-07     1.04625944e-05 
   -3.09369969e-05     1.84589617e-07     9.11655002e-06 