# vtk DataFile Version 2.0 
generated by Lattice Boltzmann Method time =   1.38564065e+00
ASCII 
DATASET UNSTRUCTURED_GRID

POINTS   1000 FLOAT 
  0.00000000e+00   0.00000000e+00   0.00000000e+00 
  0.00000000e+00   0.00000000e+00   1.00000000e-01 
  0.00000000e+00   0.00000000e+00   2.00000000e-01 
  0.00000000e+00   0.00000000e+00   3.00000000e-01 
  0.00000000e+00   0.00000000e+00   4.00000000e-01 
  0.00000000e+00   0.00000000e+00   5.00000000e-01 
  0.00000000e+00   0.00000000e+00   6.00000000e-01 
  0.00000000e+00   0.00000000e+00   7.00000000e-01 
  0.00000000e+00   0.00000000e+00   8.00000000e-01 
  0.00000000e+00   0.00000000e+00   9.00000000e-01 
  0.00000000e+00   1.00000000e-01   0.00000000e+00 
  0.00000000e+00   1.00000000e-01   1.00000000e-01 
  0.00000000e+00   1.00000000e-01   2.00000000e-01 
  0.00000000e+00   1.00000000e-01   3.00000000e-01 
  0.00000000e+00   1.00000000e-01   4.00000000e-01 
  0.00000000e+00   1.00000000e-01   5.00000000e-01 
  0.00000000e+00   1.00000000e-01   6.00000000e-01 
  0.00000000e+00   1.00000000e-01   7.00000000e-01 
  0.00000000e+00   1.00000000e-01   8.00000000e-01 
  0.00000000e+00   1.00000000e-01   9.00000000e-01 
  0.00000000e+00   2.00000000e-01   0.00000000e+00 
  0.00000000e+00   2.00000000e-01   1.00000000e-01 
  0.00000000e+00   2.00000000e-01   2.00000000e-01 
  0.00000000e+00   2.00000000e-01   3.00000000e-01 
  0.00000000e+00   2.00000000e-01   4.00000000e-01 
  0.00000000e+00   2.00000000e-01   5.00000000e-01 
  0.00000000e+00   2.00000000e-01   6.00000000e-01 
  0.00000000e+00   2.00000000e-01   7.00000000e-01 
  0.00000000e+00   2.00000000e-01   8.00000000e-01 
  0.00000000e+00   2.00000000e-01   9.00000000e-01 
  0.00000000e+00   3.00000000e-01   0.00000000e+00 
  0.00000000e+00   3.00000000e-01   1.00000000e-01 
  0.00000000e+00   3.00000000e-01   2.00000000e-01 
  0.00000000e+00   3.00000000e-01   3.00000000e-01 
  0.00000000e+00   3.00000000e-01   4.00000000e-01 
  0.00000000e+00   3.00000000e-01   5.00000000e-01 
  0.00000000e+00   3.00000000e-01   6.00000000e-01 
  0.00000000e+00   3.00000000e-01   7.00000000e-01 
  0.00000000e+00   3.00000000e-01   8.00000000e-01 
  0.00000000e+00   3.00000000e-01   9.00000000e-01 
  0.00000000e+00   4.00000000e-01   0.00000000e+00 
  0.00000000e+00   4.00000000e-01   1.00000000e-01 
  0.00000000e+00   4.00000000e-01   2.00000000e-01 
  0.00000000e+00   4.00000000e-01   3.00000000e-01 
  0.00000000e+00   4.00000000e-01   4.00000000e-01 
  0.00000000e+00   4.00000000e-01   5.00000000e-01 
  0.00000000e+00   4.00000000e-01   6.00000000e-01 
  0.00000000e+00   4.00000000e-01   7.00000000e-01 
  0.00000000e+00   4.00000000e-01   8.00000000e-01 
  0.00000000e+00   4.00000000e-01   9.00000000e-01 
  0.00000000e+00   5.00000000e-01   0.00000000e+00 
  0.00000000e+00   5.00000000e-01   1.00000000e-01 
  0.00000000e+00   5.00000000e-01   2.00000000e-01 
  0.00000000e+00   5.00000000e-01   3.00000000e-01 
  0.00000000e+00   5.00000000e-01   4.00000000e-01 
  0.00000000e+00   5.00000000e-01   5.00000000e-01 
  0.00000000e+00   5.00000000e-01   6.00000000e-01 
  0.00000000e+00   5.00000000e-01   7.00000000e-01 
  0.00000000e+00   5.00000000e-01   8.00000000e-01 
  0.00000000e+00   5.00000000e-01   9.00000000e-01 
  0.00000000e+00   6.00000000e-01   0.00000000e+00 
  0.00000000e+00   6.00000000e-01   1.00000000e-01 
  0.00000000e+00   6.00000000e-01   2.00000000e-01 
  0.00000000e+00   6.00000000e-01   3.00000000e-01 
  0.00000000e+00   6.00000000e-01   4.00000000e-01 
  0.00000000e+00   6.00000000e-01   5.00000000e-01 
  0.00000000e+00   6.00000000e-01   6.00000000e-01 
  0.00000000e+00   6.00000000e-01   7.00000000e-01 
  0.00000000e+00   6.00000000e-01   8.00000000e-01 
  0.00000000e+00   6.00000000e-01   9.00000000e-01 
  0.00000000e+00   7.00000000e-01   0.00000000e+00 
  0.00000000e+00   7.00000000e-01   1.00000000e-01 
  0.00000000e+00   7.00000000e-01   2.00000000e-01 
  0.00000000e+00   7.00000000e-01   3.00000000e-01 
  0.00000000e+00   7.00000000e-01   4.00000000e-01 
  0.00000000e+00   7.00000000e-01   5.00000000e-01 
  0.00000000e+00   7.00000000e-01   6.00000000e-01 
  0.00000000e+00   7.00000000e-01   7.00000000e-01 
  0.00000000e+00   7.00000000e-01   8.00000000e-01 
  0.00000000e+00   7.00000000e-01   9.00000000e-01 
  0.00000000e+00   8.00000000e-01   0.00000000e+00 
  0.00000000e+00   8.00000000e-01   1.00000000e-01 
  0.00000000e+00   8.00000000e-01   2.00000000e-01 
  0.00000000e+00   8.00000000e-01   3.00000000e-01 
  0.00000000e+00   8.00000000e-01   4.00000000e-01 
  0.00000000e+00   8.00000000e-01   5.00000000e-01 
  0.00000000e+00   8.00000000e-01   6.00000000e-01 
  0.00000000e+00   8.00000000e-01   7.00000000e-01 
  0.00000000e+00   8.00000000e-01   8.00000000e-01 
  0.00000000e+00   8.00000000e-01   9.00000000e-01 
  0.00000000e+00   9.00000000e-01   0.00000000e+00 
  0.00000000e+00   9.00000000e-01   1.00000000e-01 
  0.00000000e+00   9.00000000e-01   2.00000000e-01 
  0.00000000e+00   9.00000000e-01   3.00000000e-01 
  0.00000000e+00   9.00000000e-01   4.00000000e-01 
  0.00000000e+00   9.00000000e-01   5.00000000e-01 
  0.00000000e+00   9.00000000e-01   6.00000000e-01 
  0.00000000e+00   9.00000000e-01   7.00000000e-01 
  0.00000000e+00   9.00000000e-01   8.00000000e-01 
  0.00000000e+00   9.00000000e-01   9.00000000e-01 
  1.00000000e-01   0.00000000e+00   0.00000000e+00 
  1.00000000e-01   0.00000000e+00   1.00000000e-01 
  1.00000000e-01   0.00000000e+00   2.00000000e-01 
  1.00000000e-01   0.00000000e+00   3.00000000e-01 
  1.00000000e-01   0.00000000e+00   4.00000000e-01 
  1.00000000e-01   0.00000000e+00   5.00000000e-01 
  1.00000000e-01   0.00000000e+00   6.00000000e-01 
  1.00000000e-01   0.00000000e+00   7.00000000e-01 
  1.00000000e-01   0.00000000e+00   8.00000000e-01 
  1.00000000e-01   0.00000000e+00   9.00000000e-01 
  1.00000000e-01   1.00000000e-01   0.00000000e+00 
  1.00000000e-01   1.00000000e-01   1.00000000e-01 
  1.00000000e-01   1.00000000e-01   2.00000000e-01 
  1.00000000e-01   1.00000000e-01   3.00000000e-01 
  1.00000000e-01   1.00000000e-01   4.00000000e-01 
  1.00000000e-01   1.00000000e-01   5.00000000e-01 
  1.00000000e-01   1.00000000e-01   6.00000000e-01 
  1.00000000e-01   1.00000000e-01   7.00000000e-01 
  1.00000000e-01   1.00000000e-01   8.00000000e-01 
  1.00000000e-01   1.00000000e-01   9.00000000e-01 
  1.00000000e-01   2.00000000e-01   0.00000000e+00 
  1.00000000e-01   2.00000000e-01   1.00000000e-01 
  1.00000000e-01   2.00000000e-01   2.00000000e-01 
  1.00000000e-01   2.00000000e-01   3.00000000e-01 
  1.00000000e-01   2.00000000e-01   4.00000000e-01 
  1.00000000e-01   2.00000000e-01   5.00000000e-01 
  1.00000000e-01   2.00000000e-01   6.00000000e-01 
  1.00000000e-01   2.00000000e-01   7.00000000e-01 
  1.00000000e-01   2.00000000e-01   8.00000000e-01 
  1.00000000e-01   2.00000000e-01   9.00000000e-01 
  1.00000000e-01   3.00000000e-01   0.00000000e+00 
  1.00000000e-01   3.00000000e-01   1.00000000e-01 
  1.00000000e-01   3.00000000e-01   2.00000000e-01 
  1.00000000e-01   3.00000000e-01   3.00000000e-01 
  1.00000000e-01   3.00000000e-01   4.00000000e-01 
  1.00000000e-01   3.00000000e-01   5.00000000e-01 
  1.00000000e-01   3.00000000e-01   6.00000000e-01 
  1.00000000e-01   3.00000000e-01   7.00000000e-01 
  1.00000000e-01   3.00000000e-01   8.00000000e-01 
  1.00000000e-01   3.00000000e-01   9.00000000e-01 
  1.00000000e-01   4.00000000e-01   0.00000000e+00 
  1.00000000e-01   4.00000000e-01   1.00000000e-01 
  1.00000000e-01   4.00000000e-01   2.00000000e-01 
  1.00000000e-01   4.00000000e-01   3.00000000e-01 
  1.00000000e-01   4.00000000e-01   4.00000000e-01 
  1.00000000e-01   4.00000000e-01   5.00000000e-01 
  1.00000000e-01   4.00000000e-01   6.00000000e-01 
  1.00000000e-01   4.00000000e-01   7.00000000e-01 
  1.00000000e-01   4.00000000e-01   8.00000000e-01 
  1.00000000e-01   4.00000000e-01   9.00000000e-01 
  1.00000000e-01   5.00000000e-01   0.00000000e+00 
  1.00000000e-01   5.00000000e-01   1.00000000e-01 
  1.00000000e-01   5.00000000e-01   2.00000000e-01 
  1.00000000e-01   5.00000000e-01   3.00000000e-01 
  1.00000000e-01   5.00000000e-01   4.00000000e-01 
  1.00000000e-01   5.00000000e-01   5.00000000e-01 
  1.00000000e-01   5.00000000e-01   6.00000000e-01 
  1.00000000e-01   5.00000000e-01   7.00000000e-01 
  1.00000000e-01   5.00000000e-01   8.00000000e-01 
  1.00000000e-01   5.00000000e-01   9.00000000e-01 
  1.00000000e-01   6.00000000e-01   0.00000000e+00 
  1.00000000e-01   6.00000000e-01   1.00000000e-01 
  1.00000000e-01   6.00000000e-01   2.00000000e-01 
  1.00000000e-01   6.00000000e-01   3.00000000e-01 
  1.00000000e-01   6.00000000e-01   4.00000000e-01 
  1.00000000e-01   6.00000000e-01   5.00000000e-01 
  1.00000000e-01   6.00000000e-01   6.00000000e-01 
  1.00000000e-01   6.00000000e-01   7.00000000e-01 
  1.00000000e-01   6.00000000e-01   8.00000000e-01 
  1.00000000e-01   6.00000000e-01   9.00000000e-01 
  1.00000000e-01   7.00000000e-01   0.00000000e+00 
  1.00000000e-01   7.00000000e-01   1.00000000e-01 
  1.00000000e-01   7.00000000e-01   2.00000000e-01 
  1.00000000e-01   7.00000000e-01   3.00000000e-01 
  1.00000000e-01   7.00000000e-01   4.00000000e-01 
  1.00000000e-01   7.00000000e-01   5.00000000e-01 
  1.00000000e-01   7.00000000e-01   6.00000000e-01 
  1.00000000e-01   7.00000000e-01   7.00000000e-01 
  1.00000000e-01   7.00000000e-01   8.00000000e-01 
  1.00000000e-01   7.00000000e-01   9.00000000e-01 
  1.00000000e-01   8.00000000e-01   0.00000000e+00 
  1.00000000e-01   8.00000000e-01   1.00000000e-01 
  1.00000000e-01   8.00000000e-01   2.00000000e-01 
  1.00000000e-01   8.00000000e-01   3.00000000e-01 
  1.00000000e-01   8.00000000e-01   4.00000000e-01 
  1.00000000e-01   8.00000000e-01   5.00000000e-01 
  1.00000000e-01   8.00000000e-01   6.00000000e-01 
  1.00000000e-01   8.00000000e-01   7.00000000e-01 
  1.00000000e-01   8.00000000e-01   8.00000000e-01 
[...]
POINT_DATA   1000
FIELD solution 1
u 3   1000 DOUBLE
   -1.41155938e-04    -1.72437945e-05    -8.88940697e-06 
   -1.18852206e-04    -7.88146130e-06    -2.82346201e-05 
   -1.10112758e-04    -4.91953128e-06    -2.39864762e-05 
   -1.03459747e-04    -1.44713786e-06    -2.01455736e-05 
   -1.01183439e-04     1.13924789e-06    -3.42278699e-06 
   -1.01184769e-04     1.13979520e-06     3.40762784e-06 
   -1.03461634e-04    -1.44926854e-06     2.01325681e-05 
   -1.10118575e-04    -4.92311152e-06     2.39686929e-05 
   -1.18857339e-04    -7.88338615e-06     2.82178332e-05 
   -1.41088321e-04    -1.72776979e-05     8.88547627e-06 
   -1.19213508e-04    -2.98202534e-05    -6.58638788e-06 
   -9.81800363e-05    -2.41281451e-05    -2.20049249e-05 
   -8.92155526e-05    -2.21637623e-05    -2.53005456e-05 
   -8.21869348e-05    -2.06935928e-05    -1.91903671e-05 
   -7.92995423e-05    -1.83700611e-05    -5.15009815e-06 
   -7.93002683e-05    -1.83692038e-05     5.13725775e-06 
   -8.21900059e-05    -2.06968939e-05     1.91803507e-05 
   -8.92214187e-05    -2.21637321e-05     2.52884157e-05 
   -9.81790988e-05    -2.41187031e-05     2.19810568e-05 
   -1.19224299e-04    -2.98136752e-05     6.57800507e-06 
   -1.10144949e-04    -2.98014096e-05    -3.41510212e-06 
   -8.92445266e-05    -2.65239080e-05    -2.27733189e-05 
   -8.06968369e-05    -2.49970603e-05    -2.39474141e-05 
   -7.35497977e-05    -2.34877645e-05    -1.89027544e-05 
   -7.00293660e-05    -2.22464505e-05    -4.96760249e-06 
   -7.00301838e-05    -2.22464149e-05     4.95363504e-06 
   -7.35521557e-05    -2.34908799e-05     1.88912145e-05 
   -8.06968168e-05    -2.49881126e-05     2.39222912e-05 
   -8.92506212e-05    -2.65269327e-05     2.27612832e-05 
   -1.10153062e-04    -2.98047829e-05     3.40393640e-06 
   -1.04387950e-04    -1.74319431e-05    -5.98697271e-07 
   -8.25526503e-05    -1.86673688e-05    -1.93995242e-05 
   -7.37766287e-05    -1.76846487e-05    -2.29613444e-05 
   -6.51603500e-05    -1.64804244e-05    -1.64020441e-05 
   -6.20324310e-05    -1.65890257e-05    -4.98648688e-06 
   -6.20331312e-05    -1.65887363e-05     4.97330830e-06 
   -6.51603154e-05    -1.64690952e-05     1.63746104e-05 
   -7.37802534e-05    -1.76872909e-05     2.29490692e-05 
   -8.25573083e-05    -1.86722730e-05     1.93856916e-05 
   -1.04393333e-04    -1.74314562e-05     5.85293300e-07 
   -1.02144867e-04    -6.36428819e-06     1.85059053e-06 
   -7.97529614e-05    -5.81228493e-06    -1.81807256e-05 
   -7.03491724e-05    -5.89415381e-06    -2.17345671e-05 
   -6.21296154e-05    -5.18710669e-06    -1.64913810e-05 
   -5.77515682e-05    -5.33255221e-06    -4.85964503e-06 
   -5.77514553e-05    -5.30921835e-06     4.82311789e-06 
   -6.21316048e-05    -5.18681807e-06     1.64771827e-05 
   -7.03525431e-05    -5.89608848e-06     2.17196994e-05 
   -7.97572048e-05    -5.81181364e-06     1.81661103e-05 
   -1.02149976e-04    -6.36680805e-06    -1.86420579e-06 
   -1.02144867e-04     6.36428819e-06     1.85059053e-06 
   -7.97529614e-05     5.81228493e-06    -1.81807256e-05 
   -7.03491724e-05     5.89415381e-06    -2.17345671e-05 
   -6.21296154e-05     5.18710669e-06    -1.64913810e-05 
   -5.77515682e-05     5.33255221e-06    -4.85964503e-06 
   -5.77514553e-05     5.30921835e-06     4.82311789e-06 
   -6.21316048e-05     5.18681807e-06     1.64771827e-05 
   -7.03525431e-05     5.89608848e-06     2.17196994e-05 
   -7.97572048e-05     5.81181364e-06     1.81661103e-05 
   -1.02149976e-04     6.36680805e-06    -1.86420579e-06 
   -1.04387950e-04     1.74319431e-05    -5.98697272e-07 
   -8.25526503e-05     1.86673688e-05    -1.93995242e-05 
   -7.37766287e-05     1.76846487e-05    -2.29613444e-05 
   -6.51603500e-05     1.64804244e-05    -1.64020441e-05 
   -6.20324310e-05     1.65890257e-05    -4.98648688e-06 
   -6.20331312e-05     1.65887363e-05     4.97330830e-06 
   -6.51603154e-05     1.64690952e-05     1.63746104e-05 
   -7.37802534e-05     1.76872909e-05     2.29490692e-05 
   -8.25573083e-05     1.86722730e-05     1.93856916e-05 
   -1.04393333e-04     1.74314562e-05     5.85293300e-07 
   -1.10144949e-04     2.98014096e-05    -3.41510212e-06 
   -8.92445266e-05     2.65239080e-05    -2.27733189e-05 
   -8.06968369e-05     2.49970603e-05    -2.39474141e-05 
   -7.35497977e-05     2.34877645e-05    -1.89027544e-05 
   -7.00293660e-05     2.22464505e-05    -4.96760249e-06 
   -7.00301838e-05     2.22464149e-05     4.95363504e-06 
   -7.35521557e-05     2.34908799e-05     1.88912145e-05 
   -8.06968168e-05     2.49881126e-05     2.39222912e-05 
   -8.92506212e-05     2.65269327e-05     2.27612832e-05 
   -1.10153062e-04     2.98047829e-05     3.40393640e-06 
   -1.19213508e-04     2.98202534e-05    -6.58638788e-06 
   -9.81800363e-05     2.41281451e-05    -2.20049249e-05 
   -8.92155526e-05     2.21637623e-05    -2.53005456e-05 
   -8.21869348e-05     2.06935928e-05    -1.91903671e-05 
   -7.92995423e-05     1.83700611e-05    -5.15009815e-06 
   -7.93002683e-05     1.83692038e-05     5.13725775e-06 
   -8.21900059e-05     2.06968939e-05     1.91803507e-05 
   -8.92214187e-05     2.21637321e-05     2.52884157e-05 
   -9.81790988e-05     2.41187031e-05     2.19810568e-05 
   -1.19224299e-04     2.98136752e-05     6.57800507e-06 
   -1.41155938e-04     1.72437945e-05    -8.88940697e-06 
   -1.18852206e-04     7.88146130e-06    -2.82346201e-05 
   -1.10112758e-04     4.91953128e-06    -2.39864762e-05 
   -1.03459747e-04     1.44713786e-06    -2.01455736e-05 
   -1.01183439e-04    -1.13924789e-06    -3.42278699e-06 
   -1.01184769e-04    -1.13979520e-06     3.40762784e-06 
   -1.03461634e-04     1.44926854e-06     2.01325681e-05 
   -1.10118575e-04     4.92311152e-06     2.39686929e-05 
   -1.18857339e-04     7.88338615e-06     2.82178332e-05 
   -1.41088321e-04     1.72776979e-05     8.88547627e-06 
   -9.06502175e-05    -3.25063676e-05    -2.40665689e-05 
   -8.36578036e-05    -2.38240920e-05    -3.33001461e-05 
   -7.40967599e-05    -2.05887732e-05    -3.44832863e-05 
   -7.21210181e-05    -1.83272002e-05    -2.52189739e-05 
   -6.83240009e-05    -1.62179495e-05    -7.68839112e-06 
   -6.83221933e-05    -1.62178439e-05     7.68709122e-06 
   -7.21268419e-05    -1.83276052e-05     2.52179520e-05 
   -7.40979849e-05    -2.05909539e-05     3.44800657e-05 
   -8.36671134e-05    -2.38271281e-05     3.32944094e-05 
   -9.06306279e-05    -3.25107074e-05     2.40688451e-05 
   -8.01413156e-05    -3.48531451e-05    -2.27864380e-05 
   -7.13693776e-05    -3.08133507e-05    -2.63975423e-05 
   -6.31730549e-05    -2.82199156e-05    -3.30301094e-05 
   -6.00801663e-05    -2.74572605e-05    -2.39318422e-05 
   -5.59758452e-05    -2.53584855e-05    -8.79497563e-06 
   -5.59743601e-05    -2.53564797e-05     8.79420350e-06 
   -6.00849203e-05    -2.74610931e-05     2.39295935e-05 
   -6.31713794e-05    -2.82191186e-05     3.30284041e-05 
   -7.13850968e-05    -3.08231336e-05     2.63958102e-05 
   -8.01461997e-05    -3.48458609e-05     2.27855723e-05 
   -7.63995763e-05    -3.75097326e-05    -1.97473508e-05 
   -6.46207598e-05    -3.25592761e-05    -2.94559434e-05 
   -5.67311390e-05    -3.18381763e-05    -3.08397638e-05 
   -5.20471428e-05    -3.05862273e-05    -2.46104640e-05 
   -4.81320761e-05    -3.01635770e-05    -7.74508121e-06 
   -4.81316413e-05    -3.01644198e-05     7.74172580e-06 
   -5.20489887e-05    -3.05876109e-05     2.46061114e-05 
   -5.67338065e-05    -3.18425009e-05     3.08358662e-05 
   -6.46234555e-05    -3.25615858e-05     2.94514585e-05 
   -7.64074168e-05    -3.75143233e-05     1.97410860e-05 
   -7.16617822e-05    -2.35837899e-05    -1.79174874e-05 
   -5.94775124e-05    -2.44961329e-05    -2.59566374e-05 
   -5.20550514e-05    -2.35329728e-05    -3.05143006e-05 
   -4.62500499e-05    -2.32010417e-05    -2.29908749e-05 
   -4.27332837e-05    -2.35458438e-05    -8.23786889e-06 
   -4.27319485e-05    -2.35450558e-05     8.23373625e-06 
   -4.62558802e-05    -2.32018959e-05     2.29844707e-05 
   -5.20559539e-05    -2.35333227e-05     3.05096034e-05 
   -5.94815308e-05    -2.45001405e-05     2.59488262e-05 
   -7.16672618e-05    -2.35834750e-05     1.79087704e-05 
   -6.96770085e-05    -9.24006552e-06    -1.59860108e-05 
   -5.64883660e-05    -8.21991765e-06    -2.55875252e-05 
   -4.86100365e-05    -8.46119732e-06    -2.97023876e-05 
   -4.26482261e-05    -8.01065764e-06    -2.34973850e-05 
   -3.87666210e-05    -8.01721260e-06    -7.67823028e-06 
   -3.87674014e-05    -8.01434584e-06     7.66950107e-06 
   -4.26489516e-05    -8.01004061e-06     2.34913191e-05 
   -4.86118781e-05    -8.46368376e-06     2.96957072e-05 
   -5.64920788e-05    -8.22078976e-06     2.55803996e-05 
   -6.96821181e-05    -9.24342345e-06     1.59777687e-05 
   -6.96770085e-05     9.24006552e-06    -1.59860108e-05 
   -5.64883660e-05     8.21991765e-06    -2.55875252e-05 
   -4.86100365e-05     8.46119732e-06    -2.97023876e-05 
   -4.26482261e-05     8.01065764e-06    -2.34973850e-05 
   -3.87666210e-05     8.01721260e-06    -7.67823028e-06 
   -3.87674014e-05     8.01434584e-06     7.66950107e-06 
   -4.26489516e-05     8.01004061e-06     2.34913191e-05 
   -4.86118781e-05     8.46368376e-06     2.96957072e-05 
   -5.64920788e-05     8.22078976e-06     2.55803996e-05 
   -6.96821181e-05     9.24342345e-06     1.59777687e-05 
   -7.16617822e-05     2.35837899e-05    -1.79174874e-05 
   -5.94775124e-05     2.44961329e-05    -2.59566374e-05 
   -5.20550514e-05     2.35329728e-05    -3.05143006e-05 
   -4.62500499e-05     2.32010417e-05    -2.29908749e-05 
   -4.27332837e-05     2.35458438e-05    -8.23786889e-06 
   -4.27319485e-05     2.35450558e-05     8.23373625e-06 
   -4.62558802e-05     2.32018959e-05     2.29844707e-05 
   -5.20559539e-05     2.35333227e-05     3.05096034e-05 
   -5.94815308e-05     2.45001405e-05     2.59488262e-05 
   -7.16672618e-05     2.35834750e-05     1.79087704e-05 
   -7.63995763e-05     3.75097326e-05    -1.97473508e-05 
   -6.46207598e-05     3.25592761e-05    -2.94559434e-05 
   -5.67311390e-05     3.18381763e-05    -3.08397638e-05 
   -5.20471428e-05     3.05862273e-05    -2.46104640e-05 
   -4.81320761e-05     3.01635770e-05    -7.74508121e-06 
   -4.81316413e-05     3.01644198e-05     7.74172580e-06 
   -5.20489887e-05     3.05876109e-05     2.46061114e-05 
   -5.67338065e-05     3.18425009e-05     3.08358662e-05 
   -6.46234555e-05     3.25615858e-05     2.94514585e-05 
   -7.64074168e-05     3.75143233e-05     1.97410860e-05 
   -8.01413156e-05     3.48531451e-05    -2.27864380e-05 
   -7.13693776e-05     3.08133507e-05    -2.63975423e-05 
   -6.31730549e-05     2.82199156e-05    -3.30301094e-05 
   -6.00801663e-05     2.74572605e-05    -2.39318422e-05 
   -5.59758452e-05     2.53584855e-05    -8.79497563e-06 
   -5.59743601e-05     2.53564797e-05     8.79420350e-06 
   -6.00849203e-05     2.74610931e-05     2.39295935e-05 
   -6.31713794e-05     2.82191186e-05     3.30284041e-05 
   -7.13850968e-05     3.08231336e-05     2.63958102e-05 
   -8.01461997e-05     3.48458609e-05     2.27855723e-05 
   -9.06502175e-05     3.25063676e-05    -2.40665689e-05 
   -8.36578036e-05     2.38240920e-05    -3.33001461e-05 
   -7.40967599e-05     2.05887732e-05    -3.44832863e-05 
   -7.21210181e-05     1.83272002e-05    -2.52189739e-05 
   -6.83240009e-05     1.62179495e-05    -7.68839112e-06 
   -6.83221933e-05     1.62178439e-05     7.68709122e-06 
   -7.21268419e-05     1.83276052e-05     2.52179520e-05 
   -7.40979849e-05     2.05909539e-05     3.44800657e-05 
   -8.36671134e-05     2.38271281e-05     3.32944094e-05 
   -9.06306279e-05     3.25107074e-05     2.40688451e-05 
   -5.85441733e-05    -4.51469140e-05    -3.60813282e-05 
   -4.91456556e-05    -4.03758461e-05    -4.63236450e-05 
   -4.63162643e-05    -3.43436247e-05    -4.14138174e-05 
   -4.08969450e-05    -3.24230170e-05    -3.03801232e-05 
   -3.79911521e-05    -3.07512040e-05    -9.98822322e-06 
   -3.79920385e-05    -3.07515142e-05     9.98480714e-06 
   -4.08985276e-05    -3.24237098e-05     3.03772475e-05 
   -4.63187227e-05    -3.43467962e-05     4.14076113e-05 
   -4.91467981e-05    -4.03777268e-05     4.63182819e-05 
   -5.85255394e-05    -4.51477623e-05     3.60775968e-05 
   -5.20158289e-05    -4.95501991e-05    -3.96289645e-05 
   -4.35687121e-05    -4.17067863e-05    -4.11328070e-05 
   -4.11273033e-05    -4.04878312e-05    -3.95521944e-05 
   -3.60262477e-05    -3.85615673e-05    -2.89413941e-05 
   -3.35202359e-05    -3.73950830e-05    -1.04554941e-05 
   -3.35206376e-05    -3.73941383e-05     1.04543776e-05 
   -3.60254322e-05    -3.85643658e-05     2.89389707e-05 
   -4.11309625e-05    -4.04890402e-05     3.95511337e-05 
   -4.35768582e-05    -4.17120634e-05     4.11338226e-05 
   -5.20215801e-05    -4.95485277e-05     3.96265201e-05 
   -4.67537950e-05    -4.37887804e-05    -3.35612614e-05 
   -4.02935709e-05    -4.00709034e-05    -4.05701254e-05 
   -3.60210587e-05    -3.81663349e-05    -3.75122863e-05 
   -3.09051350e-05    -3.76747319e-05    -2.84246128e-05 
   -2.81034312e-05    -3.70419691e-05    -1.01906955e-05 
   -2.81023167e-05    -3.70423146e-05     1.01864797e-05 
   -3.09059529e-05    -3.76754703e-05     2.84226682e-05 
   -3.60315251e-05    -3.81702005e-05     3.75097102e-05 
   -4.02972557e-05    -4.00736443e-05     4.05664011e-05 
   -4.67598320e-05    -4.37895295e-05     3.35581073e-05 
   -4.12280473e-05    -2.88389274e-05    -3.21362884e-05 
   -3.61924281e-05    -2.82326393e-05    -3.79075403e-05 
   -3.10201291e-05    -2.76632013e-05    -3.75481897e-05 
   -2.54661778e-05    -2.67573667e-05    -2.67357087e-05 
   -2.26600235e-05    -2.72198997e-05    -1.06504049e-05 
   -2.26607318e-05    -2.72200277e-05     1.06462567e-05 
   -2.54707218e-05    -2.67574525e-05     2.67289342e-05 
   -3.10221177e-05    -2.76655508e-05     3.75434250e-05 
   -3.61943043e-05    -2.82346733e-05     3.79017575e-05 
   -4.12335269e-05    -2.88399311e-05     3.21294818e-05 
   -3.84731339e-05    -1.09334355e-05    -3.06853478e-05 
   -3.35254122e-05    -1.08470191e-05    -3.72939325e-05 
   -2.81133279e-05    -1.06746839e-05    -3.66540590e-05 
   -2.26749286e-05    -1.05664975e-05    -2.70666820e-05 
   -1.94851820e-05    -1.03197294e-05    -1.01585137e-05 
   -1.94860893e-05    -1.03158377e-05     1.01510278e-05 
   -2.26745751e-05    -1.05680528e-05     2.70605474e-05 
   -2.81129011e-05    -1.06750135e-05     3.66477237e-05 
   -3.35278662e-05    -1.08473337e-05     3.72871121e-05 
   -3.84774043e-05    -1.09346159e-05     3.06785777e-05 
   -3.84731339e-05     1.09334355e-05    -3.06853478e-05 
   -3.35254122e-05     1.08470191e-05    -3.72939325e-05 
   -2.81133279e-05     1.06746839e-05    -3.66540590e-05 
   -2.26749286e-05     1.05664975e-05    -2.70666820e-05 
   -1.94851820e-05     1.03197294e-05    -1.01585137e-05 
   -1.94860893e-05     1.03158377e-05     1.01510278e-05 
   -2.26745751e-05     1.05680528e-05     2.70605474e-05 
   -2.81129011e-05     1.06750135e-05     3.66477237e-05 
   -3.35278662e-05     1.08473337e-05     3.72871121e-05 
   -3.84774043e-05     1.09346159e-05     3.06785777e-05 
   -4.12280473e-05     2.88389274e-05    -3.21362884e-05 
   -3.61924281e-05     2.82326393e-05    -3.79075403e-05 
   -3.10201291e-05     2.76632013e-05    -3.75481897e-05 
   -2.54661778e-05     2.67573667e-05    -2.67357087e-05 
   -2.26600235e-05     2.72198997e-05    -1.06504049e-05 
   -2.26607318e-05     2.72200277e-05     1.06462567e-05 
   -2.54707218e-05     2.67574525e-05     2.67289342e-05 
   -3.10221177e-05     2.76655508e-05     3.75434250e-05 
   -3.61943043e-05     2.82346733e-05     3.79017575e-05 
   -4.12335269e-05     2.88399311e-05     3.21294818e-05 
   -4.67537950e-05     4.37887804e-05    -3.35612614e-05 
   -4.02935709e-05     4.00709034e-05    -4.05701254e-05 
   -3.60210587e-05     3.81663349e-05    -3.75122863e-05 
   -3.09051350e-05     3.76747319e-05    -2.84246128e-05 
   -2.81034312e-05     3.70419691e-05    -1.01906955e-05 
   -2.81023167e-05     3.70423146e-05     1.01864797e-05 
   -3.09059529e-05     3.76754703e-05     2.84226682e-05 
   -3.60315251e-05     3.81702005e-05     3.75097102e-05 
   -4.02972557e-05     4.00736443e-05     4.05664011e-05 
   -4.67598320e-05     4.37895295e-05     3.35581073e-05 
   -5.20158289e-05     4.95501991e-05    -3.96289645e-05 
   -4.35687121e-05     4.17067863e-05    -4.11328070e-05 
   -4.11273033e-05     4.04878312e-05    -3.95521944e-05 
   -3.60262477e-05     3.85615673e-05    -2.89413941e-05 
   -3.35202359e-05     3.73950830e-05    -1.04554941e-05 
   -3.35206376e-05     3.73941383e-05     1.04543776e-05 
   -3.60254322e-05     3.85643658e-05     2.89389707e-05 
   -4.11309625e-05     4.04890402e-05     3.95511337e-05 
   -4.35768582e-05     4.17120634e-05     4.11338226e-05 
   -5.20215801e-05     4.95485277e-05     3.96265201e-05 
   -5.85441733e-05     4.51469140e-05    -3.60813282e-05 
   -4.91456556e-05     4.03758461e-05    -4.63236450e-05 
   -4.63162643e-05     3.43436247e-05    -4.14138174e-05 
   -4.08969450e-05     3.24230170e-05    -3.03801232e-05 
   -3.79911521e-05     3.07512040e-05    -9.98822322e-06 
   -3.79920385e-05     3.07515142e-05     9.98480714e-06 
   -4.08985276e-05     3.24237098e-05     3.03772475e-05 
   -4.63187227e-05     3.43467962e-05     4.14076113e-05 
   -4.91467981e-05     4.03777268e-05     4.63182819e-05 
   -5.85255394e-05     4.51477623e-05     3.60775968e-05 
   -2.58258938e-05    -5.54069759e-05    -4.62661345e-05 
   -2.50556849e-05    -4.96674290e-05    -5.26310736e-05 
   -1.90291543e-05    -4.43932519e-05    -4.82131571e-05 
   -1.55204842e-05    -4.00932012e-05    -3.32693605e-05 
   -1.32428566e-05    -3.84755331e-05    -1.09712974e-05 
   -1.32417394e-05    -3.84760884e-05     1.09665933e-05 
   -1.55218856e-05    -4.00950403e-05     3.32634399e-05 
   -1.90279896e-05    -4.43952486e-05     4.82053224e-05 
   -2.50586722e-05    -4.96683891e-05     5.26219664e-05 
   -2.58031883e-05    -5.54067706e-05     4.62596795e-05 
   -2.36359453e-05    -5.54962374e-05    -4.89004400e-05 
   -2.18501324e-05    -4.94551711e-05    -4.81864012e-05 
   -1.69379834e-05    -4.79309526e-05    -4.61866451e-05 
   -1.37187392e-05    -4.50089516e-05    -3.21048580e-05 
   -1.20893358e-05    -4.40215022e-05    -1.14952727e-05 
   -1.20874177e-05    -4.40207354e-05     1.14925186e-05 
   -1.37207827e-05    -4.50107710e-05     3.21026170e-05 
   -1.69393223e-05    -4.79311302e-05     4.61851887e-05 
   -2.18622531e-05    -4.94568662e-05     4.81821947e-05 
   -2.36374136e-05    -5.54901807e-05     4.88960643e-05 
   -1.96185491e-05    -4.97541122e-05    -4.38516543e-05 
   -1.76798752e-05    -4.66499763e-05    -4.74419821e-05 
   -1.30561577e-05    -4.44536627e-05    -4.42745142e-05 
   -9.11738395e-06    -4.37184421e-05    -3.18263836e-05 
   -7.16159141e-06    -4.30978768e-05    -1.09012136e-05 
   -7.16120275e-06    -4.30988945e-05     1.08979570e-05 
   -9.11906619e-06    -4.37189253e-05     3.18233952e-05 
   -1.30634968e-05    -4.44551064e-05     4.42716512e-05 
   -1.76839616e-05    -4.66517037e-05     4.74370667e-05 
   -1.96201173e-05    -4.97510022e-05     4.38472038e-05 
   -1.53079374e-05    -3.29303335e-05    -3.98635255e-05 
   -1.38687135e-05    -3.23741943e-05    -4.48606163e-05 
   -8.79032291e-06    -3.15869195e-05    -4.34529491e-05 
   -4.32688348e-06    -3.01780326e-05    -3.01438853e-05 
   -2.46737972e-06    -3.08999008e-05    -1.07455902e-05 
   -2.46682267e-06    -3.08989913e-05     1.07422401e-05 
   -4.33216352e-06    -3.01797641e-05     3.01381756e-05 
   -8.79161457e-06    -3.15881481e-05     4.34485974e-05 
   -1.38727998e-05    -3.23769823e-05     4.48556748e-05 
   -1.53116094e-05    -3.29293008e-05     3.98585982e-05 
   -1.34336233e-05    -1.12507676e-05    -3.85593553e-05 
   -1.19952605e-05    -1.12896804e-05    -4.40913899e-05 
   -7.10403444e-06    -1.08583204e-05    -4.26084217e-05 