# vtk DataFile Version 2.0 
generated by Lattice Boltzmann Method time =   1.73205081e+00
ASCII 
DATASET UNSTRUCTURED_GRID

POINTS   1000 FLOAT 
  0.00000000e+00   0.00000000e+00   0.00000000e+00 
  0.00000000e+00   0.00000000e+00   1.00000000e-01 
  0.00000000e+00   0.00000000e+00   2.00000000e-01 
  0.00000000e+00   0.00000000e+00   3.00000000e-01 
  0.00000000e+00   0.00000000e+00   4.00000000e-01 
  0.00000000e+00   0.00000000e+00   5.00000000e-01 
  0.00000000e+00   0.00000000e+00   6.00000000e-01 
  0.00000000e+00   0.00000000e+00   7.00000000e-01 
  0.00000000e+00   0.00000000e+00   8.00000000e-01 
  0.00000000e+00   0.00000000e+00   9.00000000e-01 
  0.00000000e+00   1.00000000e-01   0.00000000e+00 
  0.00000000e+00   1.00000000e-01   1.00000000e-01 
  0.00000000e+00   1.00000000e-01   2.00000000e-01 
  0.00000000e+00   1.00000000e-01   3.00000000e-01 
  0.00000000e+00   1.00000000e-01   4.00000000e-01 
  0.00000000e+00   1.00000000e-01   5.00000000e-01 
  0.00000000e+00   1.00000000e-01   6.00000000e-01 
  0.00000000e+00   1.00000000e-01   7.00000000e-01 
  0.00000000e+00   1.00000000e-01   8.00000000e-01 
  0.00000000e+00   1.00000000e-01   9.00000000e-01 
  0.00000000e+00   2.00000000e-01   0.00000000e+00 
  0.00000000e+00   2.00000000e-01   1.00000000e-01 
  0.00000000e+00   2.00000000e-01   2.00000000e-01 
  0.00000000e+00   2.00000000e-01   3.00000000e-01 
  0.00000000e+00   2.00000000e-01   4.00000000e-01 
  0.00000000e+00   2.00000000e-01   5.00000000e-01 
  0.00000000e+00   2.00000000e-01   6.00000000e-01 
  0.00000000e+00   2.00000000e-01   7.00000000e-01 
  0.00000000e+00   2.00000000e-01   8.00000000e-01 
  0.00000000e+00   2.00000000e-01   9.00000000e-01 
  0.00000000e+00   3.00000000e-01   0.00000000e+00 
  0.00000000e+00   3.00000000e-01   1.00000000e-01 
  0.00000000e+00   3.00000000e-01   2.00000000e-01 
  0.00000000e+00   3.00000000e-01   3.00000000e-01 
  0.00000000e+00   3.00000000e-01   4.00000000e-01 
  0.00000000e+00   3.00000000e-01   5.00000000e-01 
  0.00000000e+00   3.00000000e-01   6.00000000e-01 
  0.00000000e+00   3.00000000e-01   7.00000000e-01 
  0.00000000e+00   3.00000000e-01   8.00000000e-01 
  0.00000000e+00   3.00000000e-01   9.00000000e-01 
  0.00000000e+00   4.00000000e-01   0.00000000e+00 
  0.00000000e+00   4.00000000e-01   1.00000000e-01 
  0.00000000e+00   4.00000000e-01   2.00000000e-01 
  0.00000000e+00   4.00000000e-01   3.00000000e-01 
  0.00000000e+00   4.00000000e-01   4.00000000e-01 
  0.00000000e+00   4.00000000e-01   5.00000000e-01 
  0.00000000e+00   4.00000000e-01   6.00000000e-01 
  0.00000000e+00   4.00000000e-01   7.00000000e-01 
  0.00000000e+00   4.00000000e-01   8.00000000e-01 
  0.00000000e+00   4.00000000e-01   9.00000000e-01 
  0.00000000e+00   5.00000000e-01   0.00000000e+00 
  0.00000000e+00   5.00000000e-01   1.00000000e-01 
  0.00000000e+00   5.00000000e-01   2.00000000e-01 
  0.00000000e+00   5.00000000e-01   3.00000000e-01 
  0.00000000e+00   5.00000000e-01   4.00000000e-01 
  0.00000000e+00   5.00000000e-01   5.00000000e-01 
  0.00000000e+00   5.00000000e-01   6.00000000e-01 
  0.00000000e+00   5.00000000e-01   7.00000000e-01 
  0.00000000e+00   5.00000000e-01   8.00000000e-01 
  0.00000000e+00   5.00000000e-01   9.00000000e-01 
  0.00000000e+00   6.00000000e-01   0.00000000e+00 
  0.00000000e+00   6.00000000e-01   1.00000000e-01 
  0.00000000e+00   6.00000000e-01   2.00000000e-01 
  0.00000000e+00   6.00000000e-01   3.00000000e-01 
  0.00000000e+00   6.00000000e-01   4.00000000e-01 
  0.00000000e+00   6.00000000e-01   5.00000000e-01 
  0.00000000e+00   6.00000000e-01   6.00000000e-01 
  0.00000000e+00   6.00000000e-01   7.00000000e-01 
  0.00000000e+00   6.00000000e-01   8.00000000e-01 
  0.00000000e+00   6.00000000e-01   9.00000000e-01 
  0.00000000e+00   7.00000000e-01   0.00000000e+00 
  0.00000000e+00   7.00000000e-01   1.00000000e-01 
  0.00000000e+00   7.00000000e-01   2.00000000e-01 
  0.00000000e+00   7.00000000e-01   3.00000000e-01 
  0.00000000e+00   7.00000000e-01   4.00000000e-01 
  0.00000000e+00   7.00000000e-01   5.00000000e-01 
  0.00000000e+00   7.00000000e-01   6.00000000e-01 
  0.00000000e+00   7.00000000e-01   7.00000000e-01 
  0.00000000e+00   7.00000000e-01   8.00000000e-01 
  0.00000000e+00   7.00000000e-01   9.00000000e-01 
  0.00000000e+00   8.00000000e-01   0.00000000e+00 
  0.00000000e+00   8.00000000e-01   1.00000000e-01 
  0.00000000e+00   8.00000000e-01   2.00000000e-01 
  0.00000000e+00   8.00000000e-01   3.00000000e-01 
  0.00000000e+00   8.00000000e-01   4.00000000e-01 
  0.00000000e+00   8.00000000e-01   5.00000000e-01 
  0.00000000e+00   8.00000000e-01   6.00000000e-01 
  0.00000000e+00   8.00000000e-01   7.00000000e-01 
  0.00000000e+00   8.00000000e-01   8.00000000e-01 
  0.00000000e+00   8.00000000e-01   9.00000000e-01 
  0.00000000e+00   9.00000000e-01   0.00000000e+00 
  0.00000000e+00   9.00000000e-01   1.00000000e-01 
  0.00000000e+00   9.00000000e-01   2.00000000e-01 
  0.00000000e+00   9.00000000e-01   3.00000000e-01 
  0.00000000e+00   9.00000000e-01   4.00000000e-01 
  0.00000000e+00   9.00000000e-01   5.00000000e-01 
  0.00000000e+00   9.00000000e-01   6.00000000e-01 
  0.00000000e+00   9.00000000e-01   7.00000000e-01 
  0.00000000e+00   9.00000000e-01   8.00000000e-01 
  0.00000000e+00   9.00000000e-01   9.00000000e-01 
  1.00000000e-01   0.00000000e+00   0.00000000e+00 
  1.00000000e-01   0.00000000e+00   1.00000000e-01 
  1.00000000e-01   0.00000000e+00   2.00000000e-01 
  1.00000000e-01   0.00000000e+00   3.00000000e-01 
  1.00000000e-01   0.00000000e+00   4.00000000e-01 
  1.00000000e-01   0.00000000e+00   5.00000000e-01 
  1.00000000e-01   0.00000000e+00   6.00000000e-01 
  1.00000000e-01   0.00000000e+00   7.00000000e-01 
  1.00000000e-01   0.00000000e+00   8.00000000e-01 
  1.00000000e-01   0.00000000e+00   9.00000000e-01 
  1.00000000e-01   1.00000000e-01   0.00000000e+00 
  1.00000000e-01   1.00000000e-01   1.00000000e-01 
  1.00000000e-01   1.00000000e-01   2.00000000e-01 
  1.00000000e-01   1.00000000e-01   3.00000000e-01 
  1.00000000e-01   1.00000000e-01   4.00000000e-01 
  1.00000000e-01   1.00000000e-01   5.00000000e-01 
  1.00000000e-01   1.00000000e-01   6.00000000e-01 
  1.00000000e-01   1.00000000e-01   7.00000000e-01 
  1.00000000e-01   1.00000000e-01   8.00000000e-01 
  1.00000000e-01   1.00000000e-01   9.00000000e-01 
  1.00000000e-01   2.00000000e-01   0.00000000e+00 
  1.00000000e-01   2.00000000e-01   1.00000000e-01 
  1.00000000e-01   2.00000000e-01   2.00000000e-01 
  1.00000000e-01   2.00000000e-01   3.00000000e-01 
  1.00000000e-01   2.00000000e-01   4.00000000e-01 
  1.00000000e-01   2.00000000e-01   5.00000000e-01 
  1.00000000e-01   2.00000000e-01   6.00000000e-01 
  1.00000000e-01   2.00000000e-01   7.00000000e-01 
  1.00000000e-01   2.00000000e-01   8.00000000e-01 
  1.00000000e-01   2.00000000e-01   9.00000000e-01 
  1.00000000e-01   3.00000000e-01   0.00000000e+00 
  1.00000000e-01   3.00000000e-01   1.00000000e-01 
  1.00000000e-01   3.00000000e-01   2.00000000e-01 
  1.00000000e-01   3.00000000e-01   3.00000000e-01 
  1.00000000e-01   3.00000000e-01   4.00000000e-01 
  1.00000000e-01   3.00000000e-01   5.00000000e-01 
  1.00000000e-01   3.00000000e-01   6.00000000e-01 
  1.00000000e-01   3.00000000e-01   7.00000000e-01 
  1.00000000e-01   3.00000000e-01   8.00000000e-01 
  1.00000000e-01   3.00000000e-01   9.00000000e-01 
  1.00000000e-01   4.00000000e-01   0.00000000e+00 
  1.00000000e-01   4.00000000e-01   1.00000000e-01 
  1.00000000e-01   4.00000000e-01   2.00000000e-01 
  1.00000000e-01   4.00000000e-01   3.00000000e-01 
  1.00000000e-01   4.00000000e-01   4.00000000e-01 
  1.00000000e-01   4.00000000e-01   5.00000000e-01 
  1.00000000e-01   4.00000000e-01   6.00000000e-01 
  1.00000000e-01   4.00000000e-01   7.00000000e-01 
  1.00000000e-01   4.00000000e-01   8.00000000e-01 
  1.00000000e-01   4.00000000e-01   9.00000000e-01 
  1.00000000e-01   5.00000000e-01   0.00000000e+00 
  1.00000000e-01   5.00000000e-01   1.00000000e-01 
  1.00000000e-01   5.00000000e-01   2.00000000e-01 
  1.00000000e-01   5.00000000e-01   3.00000000e-01 
  1.00000000e-01   5.00000000e-01   4.00000000e-01 
  1.00000000e-01   5.00000000e-01   5.00000000e-01 
  1.00000000e-01   5.00000000e-01   6.00000000e-01 
  1.00000000e-01   5.00000000e-01   7.00000000e-01 
  1.00000000e-01   5.00000000e-01   8.00000000e-01 
  1.00000000e-01   5.00000000e-01   9.00000000e-01 
  1.00000000e-01   6.00000000e-01   0.00000000e+00 
  1.00000000e-01   6.00000000e-01   1.00000000e-01 
  1.00000000e-01   6.00000000e-01   2.00000000e-01 
  1.00000000e-01   6.00000000e-01   3.00000000e-01 
  1.00000000e-01   6.00000000e-01   4.00000000e-01 
  1.00000000e-01   6.00000000e-01   5.00000000e-01 
  1.00000000e-01   6.00000000e-01   6.00000000e-01 
  1.00000000e-01   6.00000000e-01   7.00000000e-01 
  1.00000000e-01   6.00000000e-01   8.00000000e-01 
  1.00000000e-01   6.00000000e-01   9.00000000e-01 
  1.00000000e-01   7.00000000e-01   0.00000000e+00 
  1.00000000e-01   7.00000000e-01   1.00000000e-01 
  1.00000000e-01   7.00000000e-01   2.00000000e-01 
  1.00000000e-01   7.00000000e-01   3.00000000e-01 
  1.00000000e-01   7.00000000e-01   4.00000000e-01 
  1.00000000e-01   7.00000000e-01   5.00000000e-01 
  1.00000000e-01   7.00000000e-01   6.00000000e-01 
  1.00000000e-01   7.00000000e-01   7.00000000e-01 
  1.00000000e-01   7.00000000e-01   8.00000000e-01 
  1.00000000e-01   7.00000000e-01   9.00000000e-01 
  1.00000000e-01   8.00000000e-01   0.00000000e+00 
  1.00000000e-01   8.00000000e-01   1.00000000e-01 
  1.00000000e-01   8.00000000e-01   2.00000000e-01 
  1.00000000e-01   8.00000000e-01   3.00000000e-01 
  1.00000000e-01   8.00000000e-01   4.00000000e-01 
  1.00000000e-01   8.00000000e-01   5.00000000e-01 
  1.00000000e-01   8.00000000e-01   6.00000000e-01 
  1.00000000e-01   8.00000000e-01   7.00000000e-01 
  1.00000000e-01   8.00000000e-01   8.00000000e-01 
[...]
POINT_DATA   1000
FIELD solution 1
u 3   1000 DOUBLE
   -2.29240882e-04     7.46939012e-05     7.58050349e-05 
   -2.04819063e-04     7.62130162e-05     5.41483597e-05 
   -2.03255891e-04     7.59777163e-05     5.26064607e-05 
   -1.99469448e-04     7.44326437e-05     2.17349642e-05 
   -1.97909513e-04     7.40738170e-05     1.37303338e-05 
   -1.97911054e-04     7.40732209e-05    -1.37525204e-05 
   -1.99469010e-04     7.44326262e-05    -2.17556962e-05 
   -2.03258522e-04     7.59767215e-05    -5.26331351e-05 
   -2.04817362e-04     7.62139400e-05    -5.41695764e-05 
   -2.29212091e-04     7.46792467e-05    -7.58204648e-05 
   -2.07398092e-04     6.39713730e-05     7.49802867e-05 
   -1.89826452e-04     6.13517302e-05     6.23657691e-05 
   -1.85261681e-04     6.24084406e-05     4.71274917e-05 
   -1.82223806e-04     5.98345383e-05     2.49467740e-05 
   -1.80512344e-04     6.10603056e-05     9.84180413e-06 
   -1.80512954e-04     6.10653371e-05    -9.85334448e-06 
   -1.82225404e-04     5.98297242e-05    -2.49574733e-05 
   -1.85264919e-04     6.24133064e-05    -4.71429352e-05 
   -1.89824114e-04     6.13487352e-05    -6.23774022e-05 
   -2.07409826e-04     6.39901547e-05    -7.49904446e-05 
   -2.01309389e-04     4.34736801e-05     7.67144567e-05 
   -1.84536008e-04     4.57935104e-05     5.85109760e-05 
   -1.81391603e-04     4.82187379e-05     4.92561852e-05 
   -1.78657812e-04     4.90310276e-05     2.60079119e-05 
   -1.77447419e-04     4.90135612e-05     1.04493696e-05 
   -1.77447859e-04     4.90135636e-05    -1.04623729e-05 
   -1.78659098e-04     4.90295901e-05    -2.60192001e-05 
   -1.81389636e-04     4.82307566e-05    -4.92844748e-05 
   -1.84539733e-04     4.57945863e-05    -5.85234000e-05 
   -2.01316503e-04     4.34758924e-05    -7.67272631e-05 
   -1.98259938e-04     3.15080863e-05     7.49956820e-05 
   -1.81590633e-04     2.81826760e-05     6.14941666e-05 
   -1.78494422e-04     2.98983720e-05     4.85800157e-05 
   -1.75538925e-04     3.09089387e-05     3.04074965e-05 
   -1.74126767e-04     3.12108265e-05     9.93407530e-06 
   -1.74127174e-04     3.12137792e-05    -9.94700630e-06 
   -1.75538101e-04     3.09139971e-05    -3.04301086e-05 
   -1.78496237e-04     2.98996012e-05    -4.85929364e-05 
   -1.81593472e-04     2.81798390e-05    -6.15095666e-05 
   -1.98266120e-04     3.15158385e-05    -7.50091992e-05 
   -1.96440925e-04     5.77374460e-06     7.46405761e-05 
   -1.79921968e-04     8.32527024e-06     6.04320995e-05 
   -1.77244416e-04     7.49689181e-06     4.91494951e-05 
   -1.74172660e-04     9.26205657e-06     2.99421183e-05 
   -1.73249185e-04     9.63410204e-06     1.02280548e-05 
   -1.73248797e-04     9.64373527e-06    -1.02519202e-05 
   -1.74173621e-04     9.26305961e-06    -2.99563830e-05 
   -1.77245865e-04     7.49477194e-06    -4.91614693e-05 
   -1.79924345e-04     8.32498595e-06    -6.04456780e-05 
   -1.96446476e-04     5.76840843e-06    -7.46544229e-05 
   -1.96440925e-04    -5.77374460e-06     7.46405761e-05 
   -1.79921968e-04    -8.32527024e-06     6.04320995e-05 
   -1.77244416e-04    -7.49689181e-06     4.91494951e-05 
   -1.74172660e-04    -9.26205657e-06     2.99421183e-05 
   -1.73249185e-04    -9.63410204e-06     1.02280548e-05 
   -1.73248797e-04    -9.64373527e-06    -1.02519202e-05 
   -1.74173621e-04    -9.26305961e-06    -2.99563830e-05 
   -1.77245865e-04    -7.49477194e-06    -4.91614693e-05 
   -1.79924345e-04    -8.32498595e-06    -6.04456780e-05 
   -1.96446476e-04    -5.76840843e-06    -7.46544229e-05 
   -1.98259938e-04    -3.15080863e-05     7.49956820e-05 
   -1.81590633e-04    -2.81826760e-05     6.14941666e-05 
   -1.78494422e-04    -2.98983720e-05     4.85800157e-05 
   -1.75538925e-04    -3.09089387e-05     3.04074965e-05 
   -1.74126767e-04    -3.12108265e-05     9.93407530e-06 
   -1.74127174e-04    -3.12137792e-05    -9.94700630e-06 
   -1.75538101e-04    -3.09139971e-05    -3.04301086e-05 
   -1.78496237e-04    -2.98996012e-05    -4.85929364e-05 
   -1.81593472e-04    -2.81798390e-05    -6.15095666e-05 
   -1.98266120e-04    -3.15158385e-05    -7.50091992e-05 
   -2.01309389e-04    -4.34736801e-05     7.67144567e-05 
   -1.84536008e-04    -4.57935104e-05     5.85109760e-05 
   -1.81391603e-04    -4.82187379e-05     4.92561852e-05 
   -1.78657812e-04    -4.90310276e-05     2.60079119e-05 
   -1.77447419e-04    -4.90135612e-05     1.04493696e-05 
   -1.77447859e-04    -4.90135636e-05    -1.04623729e-05 
   -1.78659098e-04    -4.90295901e-05    -2.60192001e-05 
   -1.81389636e-04    -4.82307566e-05    -4.92844748e-05 
   -1.84539733e-04    -4.57945863e-05    -5.85234000e-05 
   -2.01316503e-04    -4.34758924e-05    -7.67272631e-05 
   -2.07398092e-04    -6.39713730e-05     7.49802867e-05 
   -1.89826452e-04    -6.13517302e-05     6.23657691e-05 
   -1.85261681e-04    -6.24084406e-05     4.71274917e-05 
   -1.82223806e-04    -5.98345383e-05     2.49467740e-05 
   -1.80512344e-04    -6.10603056e-05     9.84180413e-06 
   -1.80512954e-04    -6.10653371e-05    -9.85334448e-06 
   -1.82225404e-04    -5.98297242e-05    -2.49574733e-05 
   -1.85264919e-04    -6.24133064e-05    -4.71429352e-05 
   -1.89824114e-04    -6.13487352e-05    -6.23774022e-05 
   -2.07409826e-04    -6.39901547e-05    -7.49904446e-05 
   -2.29240882e-04    -7.46939012e-05     7.58050349e-05 
   -2.04819063e-04    -7.62130162e-05     5.41483597e-05 
   -2.03255891e-04    -7.59777163e-05     5.26064607e-05 
   -1.99469448e-04    -7.44326437e-05     2.17349642e-05 
   -1.97909513e-04    -7.40738170e-05     1.37303338e-05 
   -1.97911054e-04    -7.40732209e-05    -1.37525204e-05 
   -1.99469010e-04    -7.44326262e-05    -2.17556962e-05 
   -2.03258522e-04    -7.59767215e-05    -5.26331351e-05 
   -2.04817362e-04    -7.62139400e-05    -5.41695764e-05 
   -2.29212091e-04    -7.46792467e-05    -7.58204648e-05 
   -1.57569422e-04     6.53197941e-05     6.69888941e-05 
   -1.61346593e-04     6.78389606e-05     5.93983270e-05 
   -1.46218442e-04     6.80866127e-05     4.31161526e-05 
   -1.45670404e-04     6.66574853e-05     2.34280477e-05 
   -1.40288418e-04     6.60294702e-05     8.60958990e-06 
   -1.40281023e-04     6.60291622e-05    -8.61660040e-06 
   -1.45680257e-04     6.66581336e-05    -2.34357912e-05 
   -1.46213413e-04     6.80861440e-05    -4.31263351e-05 
   -1.61361475e-04     6.78377419e-05    -5.94059207e-05 
   -1.57545101e-04     6.53084735e-05    -6.69864122e-05 
   -1.49088165e-04     6.35163161e-05     6.74865283e-05 
   -1.47267830e-04     5.91145002e-05     6.78250651e-05 
   -1.37180158e-04     6.17492475e-05     4.03985089e-05 
   -1.36053399e-04     5.80338917e-05     2.70612190e-05 
   -1.31952945e-04     5.98533901e-05     6.71409900e-06 
   -1.31946029e-04     5.98616763e-05    -6.71681773e-06 
   -1.36062400e-04     5.80253029e-05    -2.70679993e-05 
   -1.37172848e-04     6.17572556e-05    -4.03997106e-05 
   -1.47287155e-04     5.91021683e-05    -6.78379082e-05 
   -1.49085788e-04     6.35310938e-05    -6.74888156e-05 
   -1.50064971e-04     3.80494476e-05     6.88416054e-05 
   -1.40688759e-04     4.37131451e-05     5.70417311e-05 
   -1.34211819e-04     4.41679807e-05     4.57341620e-05 
   -1.27897922e-04     4.58470321e-05     2.51750967e-05 
   -1.24918754e-04     4.45639120e-05     9.05585469e-06 
   -1.24914873e-04     4.45617837e-05    -9.06086133e-06 
   -1.27901939e-04     4.58476503e-05    -2.51810008e-05 
   -1.34209765e-04     4.41630757e-05    -4.57399137e-05 
   -1.40693802e-04     4.37145683e-05    -5.70466250e-05 
   -1.50071245e-04     3.80439179e-05    -6.88485232e-05 
   -1.41049343e-04     2.89367712e-05     6.72513909e-05 
   -1.32883106e-04     2.59422157e-05     6.12255334e-05 
   -1.27331960e-04     2.82539350e-05     4.45770087e-05 
   -1.21250125e-04     2.84138065e-05     2.89671569e-05 
   -1.18408962e-04     2.80093289e-05     8.80175005e-06 
   -1.18405829e-04     2.80129918e-05    -8.80710282e-06 
   -1.21256740e-04     2.84120366e-05    -2.89761749e-05 
   -1.27330113e-04     2.82581839e-05    -4.45815501e-05 
   -1.32885879e-04     2.59396995e-05    -6.12377092e-05 
   -1.41050323e-04     2.89446592e-05    -6.72601129e-05 
   -1.40145236e-04     4.52932501e-06     6.65759010e-05 
   -1.31406057e-04     8.61004285e-06     5.87707452e-05 
   -1.25212096e-04     6.59017798e-06     4.52924158e-05 
   -1.17591336e-04     9.17128814e-06     2.73444540e-05 
   -1.15883369e-04     8.89120812e-06     9.44384432e-06 
   -1.15880270e-04     8.89031965e-06    -9.45223992e-06 
   -1.17593447e-04     9.17284669e-06    -2.73511680e-05 
   -1.25211809e-04     6.58562201e-06    -4.52971381e-05 
   -1.31410121e-04     8.61026215e-06    -5.87784961e-05 
   -1.40149006e-04     4.52157762e-06    -6.65848409e-05 
   -1.40145236e-04    -4.52932501e-06     6.65759010e-05 
   -1.31406057e-04    -8.61004285e-06     5.87707452e-05 
   -1.25212096e-04    -6.59017798e-06     4.52924158e-05 
   -1.17591336e-04    -9.17128814e-06     2.73444540e-05 
   -1.15883369e-04    -8.89120812e-06     9.44384432e-06 
   -1.15880270e-04    -8.89031965e-06    -9.45223992e-06 
   -1.17593447e-04    -9.17284669e-06    -2.73511680e-05 
   -1.25211809e-04    -6.58562201e-06    -4.52971381e-05 
   -1.31410121e-04    -8.61026215e-06    -5.87784961e-05 
   -1.40149006e-04    -4.52157762e-06    -6.65848409e-05 
   -1.41049343e-04    -2.89367712e-05     6.72513909e-05 
   -1.32883106e-04    -2.59422157e-05     6.12255334e-05 
   -1.27331960e-04    -2.82539350e-05     4.45770087e-05 
   -1.21250125e-04    -2.84138065e-05     2.89671569e-05 
   -1.18408962e-04    -2.80093289e-05     8.80175005e-06 
   -1.18405829e-04    -2.80129918e-05    -8.80710282e-06 
   -1.21256740e-04    -2.84120366e-05    -2.89761749e-05 
   -1.27330113e-04    -2.82581839e-05    -4.45815501e-05 
   -1.32885879e-04    -2.59396995e-05    -6.12377092e-05 
   -1.41050323e-04    -2.89446592e-05    -6.72601129e-05 
   -1.50064971e-04    -3.80494476e-05     6.88416054e-05 
   -1.40688759e-04    -4.37131451e-05     5.70417311e-05 
   -1.34211819e-04    -4.41679807e-05     4.57341620e-05 
   -1.27897922e-04    -4.58470321e-05     2.51750967e-05 
   -1.24918754e-04    -4.45639120e-05     9.05585469e-06 
   -1.24914873e-04    -4.45617837e-05    -9.06086133e-06 
   -1.27901939e-04    -4.58476503e-05    -2.51810008e-05 
   -1.34209765e-04    -4.41630757e-05    -4.57399137e-05 
   -1.40693802e-04    -4.37145683e-05    -5.70466250e-05 
   -1.50071245e-04    -3.80439179e-05    -6.88485232e-05 
   -1.49088165e-04    -6.35163161e-05     6.74865283e-05 
   -1.47267830e-04    -5.91145002e-05     6.78250651e-05 
   -1.37180158e-04    -6.17492475e-05     4.03985089e-05 
   -1.36053399e-04    -5.80338917e-05     2.70612190e-05 
   -1.31952945e-04    -5.98533901e-05     6.71409900e-06 
   -1.31946029e-04    -5.98616763e-05    -6.71681773e-06 
   -1.36062400e-04    -5.80253029e-05    -2.70679993e-05 
   -1.37172848e-04    -6.17572556e-05    -4.03997106e-05 
   -1.47287155e-04    -5.91021683e-05    -6.78379082e-05 
   -1.49085788e-04    -6.35310938e-05    -6.74888156e-05 
   -1.57569422e-04    -6.53197941e-05     6.69888941e-05 
   -1.61346593e-04    -6.78389606e-05     5.93983270e-05 
   -1.46218442e-04    -6.80866127e-05     4.31161526e-05 
   -1.45670404e-04    -6.66574853e-05     2.34280477e-05 
   -1.40288418e-04    -6.60294702e-05     8.60958990e-06 
   -1.40281023e-04    -6.60291622e-05    -8.61660040e-06 
   -1.45680257e-04    -6.66581336e-05    -2.34357912e-05 
   -1.46213413e-04    -6.80861440e-05    -4.31263351e-05 
   -1.61361475e-04    -6.78377419e-05    -5.94059207e-05 
   -1.57545101e-04    -6.53084735e-05    -6.69864122e-05 
   -1.20421517e-04     6.94653014e-05     7.08094964e-05 
   -1.09337244e-04     6.57066374e-05     4.99370852e-05 
   -1.05260370e-04     6.82755501e-05     3.86447227e-05 
   -9.54251176e-05     6.61149808e-05     1.95928020e-05 
   -9.24935465e-05     6.52918297e-05     9.81171642e-06 
   -9.24940047e-05     6.52911336e-05    -9.82026576e-06 
   -9.54256741e-05     6.61155387e-05    -1.95985008e-05 
   -1.05262308e-04     6.82741953e-05    -3.86544849e-05 
   -1.09336160e-04     6.57076065e-05    -4.99430969e-05 
   -1.20412727e-04     6.94650603e-05    -7.08176830e-05 
   -1.14681636e-04     4.91012118e-05     6.56962714e-05 
   -1.04444057e-04     5.59715394e-05     5.44300410e-05 
   -1.00263052e-04     5.36001009e-05     3.84803155e-05 
   -9.08032740e-05     5.46611905e-05     2.08116876e-05 
   -8.90717719e-05     5.54514154e-05     9.14416802e-06 
   -8.90730964e-05     5.54557964e-05    -9.14753049e-06 
   -9.08019099e-05     5.46558004e-05    -2.08143561e-05 
   -1.00268693e-04     5.36025294e-05    -3.84822125e-05 
   -1.04449599e-04     5.59669463e-05    -5.44302145e-05 
   -1.14691714e-04     4.91021737e-05    -6.57006494e-05 
   -1.03533208e-04     3.65374782e-05     6.91209670e-05 
   -9.71873562e-05     3.87051262e-05     5.26899705e-05 
   -9.17315989e-05     4.21142027e-05     4.30564012e-05 
   -8.29057345e-05     4.13037897e-05     2.19781018e-05 
   -8.06269351e-05     4.08266754e-05     8.83411104e-06 
   -8.06266198e-05     4.08256614e-05    -8.83983414e-06 
   -8.29053936e-05     4.13042699e-05    -2.19815942e-05 
   -9.17393272e-05     4.21102279e-05    -4.30604421e-05 
   -9.71873956e-05     3.87052484e-05    -5.26938227e-05 
   -1.03536070e-04     3.65373174e-05    -6.91252474e-05 
   -9.43348783e-05     2.36883104e-05     6.69542347e-05 
   -9.06270130e-05     2.29021649e-05     5.58343252e-05 
   -8.28166949e-05     2.40647577e-05     4.05986539e-05 
   -7.48258600e-05     2.55189751e-05     2.56440030e-05 
   -7.14245309e-05     2.48993085e-05     8.44119454e-06 
   -7.14250090e-05     2.49015581e-05    -8.44670217e-06 
   -7.48276480e-05     2.55173356e-05    -2.56515377e-05 
   -8.28173882e-05     2.40653931e-05    -4.06034012e-05 
   -9.06261973e-05     2.29002470e-05    -5.58410421e-05 
   -9.43363632e-05     2.36901910e-05    -6.69614352e-05 
   -9.09098578e-05     6.55604194e-06     6.61080576e-05 
   -8.78632502e-05     7.81973475e-06     5.55165877e-05 
   -7.97727856e-05     7.00056663e-06     4.14605406e-05 
   -7.10446169e-05     8.27772189e-06     2.47486669e-05 
   -6.79666414e-05     8.69885589e-06     8.85555222e-06 
   -6.79677314e-05     8.69985123e-06    -8.86311393e-06 
   -7.10451076e-05     8.27861616e-06    -2.47552867e-05 
   -7.97734389e-05     6.99920173e-06    -4.14650937e-05 
   -8.78646399e-05     7.82034572e-06    -5.55226897e-05 
   -9.09127633e-05     6.55414621e-06    -6.61151622e-05 
   -9.09098578e-05    -6.55604194e-06     6.61080576e-05 
   -8.78632502e-05    -7.81973475e-06     5.55165877e-05 
   -7.97727856e-05    -7.00056663e-06     4.14605406e-05 
   -7.10446169e-05    -8.27772189e-06     2.47486669e-05 
   -6.79666414e-05    -8.69885589e-06     8.85555222e-06 
   -6.79677314e-05    -8.69985123e-06    -8.86311393e-06 
   -7.10451076e-05    -8.27861616e-06    -2.47552867e-05 
   -7.97734389e-05    -6.99920173e-06    -4.14650937e-05 
   -8.78646399e-05    -7.82034572e-06    -5.55226897e-05 
   -9.09127633e-05    -6.55414621e-06    -6.61151622e-05 
   -9.43348783e-05    -2.36883104e-05     6.69542347e-05 
   -9.06270130e-05    -2.29021649e-05     5.58343252e-05 
   -8.28166949e-05    -2.40647577e-05     4.05986539e-05 
   -7.48258600e-05    -2.55189751e-05     2.56440030e-05 
   -7.14245309e-05    -2.48993085e-05     8.44119454e-06 
   -7.14250090e-05    -2.49015581e-05    -8.44670217e-06 
   -7.48276480e-05    -2.55173356e-05    -2.56515377e-05 
   -8.28173882e-05    -2.40653931e-05    -4.06034012e-05 
   -9.06261973e-05    -2.29002470e-05    -5.58410421e-05 
   -9.43363632e-05    -2.36901910e-05    -6.69614352e-05 
   -1.03533208e-04    -3.65374782e-05     6.91209670e-05 
   -9.71873562e-05    -3.87051262e-05     5.26899705e-05 
   -9.17315989e-05    -4.21142027e-05     4.30564012e-05 
   -8.29057345e-05    -4.13037897e-05     2.19781018e-05 
   -8.06269351e-05    -4.08266754e-05     8.83411104e-06 
   -8.06266198e-05    -4.08256614e-05    -8.83983414e-06 
   -8.29053935e-05    -4.13042699e-05    -2.19815942e-05 
   -9.17393272e-05    -4.21102279e-05    -4.30604421e-05 
   -9.71873956e-05    -3.87052484e-05    -5.26938227e-05 
   -1.03536070e-04    -3.65373174e-05    -6.91252474e-05 
   -1.14681636e-04    -4.91012118e-05     6.56962714e-05 
   -1.04444057e-04    -5.59715394e-05     5.44300410e-05 
   -1.00263052e-04    -5.36001009e-05     3.84803155e-05 
   -9.08032740e-05    -5.46611905e-05     2.08116876e-05 
   -8.90717719e-05    -5.54514154e-05     9.14416802e-06 
   -8.90730964e-05    -5.54557964e-05    -9.14753049e-06 
   -9.08019099e-05    -5.46558004e-05    -2.08143561e-05 
   -1.00268693e-04    -5.36025294e-05    -3.84822125e-05 
   -1.04449599e-04    -5.59669463e-05    -5.44302145e-05 
   -1.14691714e-04    -4.91021737e-05    -6.57006494e-05 
   -1.20421517e-04    -6.94653014e-05     7.08094964e-05 
   -1.09337244e-04    -6.57066374e-05     4.99370852e-05 
   -1.05260370e-04    -6.82755501e-05     3.86447227e-05 
   -9.54251176e-05    -6.61149808e-05     1.95928020e-05 
   -9.24935465e-05    -6.52918297e-05     9.81171642e-06 
   -9.24940047e-05    -6.52911336e-05    -9.82026576e-06 
   -9.54256741e-05    -6.61155387e-05    -1.95985008e-05 
   -1.05262308e-04    -6.82741953e-05    -3.86544849e-05 
   -1.09336160e-04    -6.57076065e-05    -4.99430969e-05 
   -1.20412727e-04    -6.94650603e-05    -7.08176830e-05 
   -6.24988509e-05     6.72147827e-05     6.82249606e-05 
   -6.82445128e-05     6.39933432e-05     5.17232609e-05 
   -6.01476262e-05     6.63142653e-05     3.35496887e-05 
   -5.59047280e-05     6.71240878e-05     1.97509641e-05 
   -4.92324219e-05     6.63971409e-05     6.73866382e-06 
   -4.92292006e-05     6.63967693e-05    -6.74690864e-06 
   -5.59105520e-05     6.71235283e-05    -1.97600536e-05 
   -6.01459685e-05     6.63135782e-05    -3.35584537e-05 
   -6.82508220e-05     6.39935239e-05    -5.17370139e-05 
   -6.24839784e-05     6.72122860e-05    -6.82322924e-05 
   -6.28549121e-05     5.10098492e-05     6.44665848e-05 
   -6.60016866e-05     5.42328945e-05     5.51126533e-05 
   -5.97889147e-05     5.18740931e-05     3.37837602e-05 
   -5.55585208e-05     5.46505940e-05     2.01094236e-05 
   -5.01937497e-05     5.47937217e-05     6.37737557e-06 
   -5.01910205e-05     5.47968020e-05    -6.38099359e-06 
   -5.55628049e-05     5.46477300e-05    -2.01149668e-05 
   -5.97888345e-05     5.18767801e-05    -3.37849337e-05 
   -6.60124425e-05     5.42314959e-05    -5.51230838e-05 
   -6.28547252e-05     5.10197865e-05    -6.44722167e-05 
   -6.02425994e-05     3.33565987e-05     6.71851935e-05 
   -6.15861740e-05     3.42186752e-05     5.28300139e-05 
   -5.68083670e-05     3.89629504e-05     3.84032461e-05 
   -5.10941728e-05     3.82941804e-05     2.03580031e-05 
   -4.50685220e-05     3.85389605e-05     6.25825455e-06 
   -4.50670101e-05     3.85380623e-05    -6.26277357e-06 
   -5.10984871e-05     3.82942269e-05    -2.03632766e-05 
   -5.68117124e-05     3.89600257e-05    -3.84058115e-05 
   -6.15913694e-05     3.42168256e-05    -5.28387886e-05 
   -6.02438723e-05     3.33578138e-05    -6.71908590e-05 
   -5.35600153e-05     2.12157187e-05     6.80416848e-05 
   -5.55238856e-05     1.93410039e-05     5.44014345e-05 
   -4.99990791e-05     2.09299938e-05     3.79393069e-05 
   -4.45242308e-05     2.38547984e-05     2.40361664e-05 
   -3.82822555e-05     2.25346812e-05     7.78605634e-06 
   -3.82812202e-05     2.25370356e-05    -7.79104739e-06 
   -4.45307420e-05     2.38529517e-05    -2.40438171e-05 
   -4.99994833e-05     2.09318987e-05    -3.79448498e-05 
   -5.55283285e-05     1.93391895e-05    -5.44095969e-05 
   -5.35620741e-05     2.12200785e-05    -6.80475525e-05 
   -4.89379985e-05     5.28174589e-06     6.71518131e-05 
   -4.97969016e-05     6.73542108e-06     5.44889351e-05 
   -4.49307552e-05     5.95466997e-06     3.92265025e-05 