# vtk DataFile Version 2.0 
generated by Lattice Boltzmann Method time =   3.46410162e-01
ASCII 
DATASET UNSTRUCTURED_GRID

POINTS   1000 FLOAT 
  0.00000000e+00   0.00000000e+00   0.00000000e+00 
  0.00000000e+00   0.00000000e+00   1.00000000e-01 
  0.00000000e+00   0.00000000e+00   2.00000000e-01 
  0.00000000e+00   0.00000000e+00   3.00000000e-01 
  0.00000000e+00   0.00000000e+00   4.00000000e-01 
  0.00000000e+00   0.00000000e+00   5.00000000e-01 
  0.00000000e+00   0.00000000e+00   6.00000000e-01 
  0.00000000e+00   0.00000000e+00   7.00000000e-01 
  0.00000000e+00   0.00000000e+00   8.00000000e-01 
  0.00000000e+00   0.00000000e+00   9.00000000e-01 
  0.00000000e+00   1.00000000e-01   0.00000000e+00 
  0.00000000e+00   1.00000000e-01   1.00000000e-01 
  0.00000000e+00   1.00000000e-01   2.00000000e-01 
  0.00000000e+00   1.00000000e-01   3.00000000e-01 
  0.00000000e+00   1.00000000e-01   4.00000000e-01 
  0.00000000e+00   1.00000000e-01   5.00000000e-01 
  0.00000000e+00   1.00000000e-01   6.00000000e-01 
  0.00000000e+00   1.00000000e-01   7.00000000e-01 
  0.00000000e+00   1.00000000e-01   8.00000000e-01 
  0.00000000e+00   1.00000000e-01   9.00000000e-01 
  0.00000000e+00   2.00000000e-01   0.00000000e+00 
  0.00000000e+00   2.00000000e-01   1.00000000e-01 
  0.00000000e+00   2.00000000e-01   2.00000000e-01 
  0.00000000e+00   2.00000000e-01   3.00000000e-01 
  0.00000000e+00   2.00000000e-01   4.00000000e-01 
  0.00000000e+00   2.00000000e-01   5.00000000e-01 
  0.00000000e+00   2.00000000e-01   6.00000000e-01 
  0.00000000e+00   2.00000000e-01   7.00000000e-01 
  0.00000000e+00   2.00000000e-01   8.00000000e-01 
  0.00000000e+00   2.00000000e-01   9.00000000e-01 
  0.00000000e+00   3.00000000e-01   0.00000000e+00 
  0.00000000e+00   3.00000000e-01   1.00000000e-01 
  0.00000000e+00   3.00000000e-01   2.00000000e-01 
  0.00000000e+00   3.00000000e-01   3.00000000e-01 
  0.00000000e+00   3.00000000e-01   4.00000000e-01 
  0.00000000e+00   3.00000000e-01   5.00000000e-01 
  0.00000000e+00   3.00000000e-01   6.00000000e-01 
  0.00000000e+00   3.00000000e-01   7.00000000e-01 
  0.00000000e+00   3.00000000e-01   8.00000000e-01 
  0.00000000e+00   3.00000000e-01   9.00000000e-01 
  0.00000000e+00   4.00000000e-01   0.00000000e+00 
  0.00000000e+00   4.00000000e-01   1.00000000e-01 
  0.00000000e+00   4.00000000e-01   2.00000000e-01 
  0.00000000e+00   4.00000000e-01   3.00000000e-01 
  0.00000000e+00   4.00000000e-01   4.00000000e-01 
  0.00000000e+00   4.00000000e-01   5.00000000e-01 
  0.00000000e+00   4.00000000e-01   6.00000000e-01 
  0.00000000e+00   4.00000000e-01   7.00000000e-01 
  0.00000000e+00   4.00000000e-01   8.00000000e-01 
  0.00000000e+00   4.00000000e-01   9.00000000e-01 
  0.00000000e+00   5.00000000e-01   0.00000000e+00 
  0.00000000e+00   5.00000000e-01   1.00000000e-01 
  0.00000000e+00   5.00000000e-01   2.00000000e-01 
  0.00000000e+00   5.00000000e-01   3.00000000e-01 
  0.00000000e+00   5.00000000e-01   4.00000000e-01 
  0.00000000e+00   5.00000000e-01   5.00000000e-01 
  0.00000000e+00   5.00000000e-01   6.00000000e-01 
  0.00000000e+00   5.00000000e-01   7.00000000e-01 
  0.00000000e+00   5.00000000e-01   8.00000000e-01 
  0.00000000e+00   5.00000000e-01   9.00000000e-01 
  0.00000000e+00   6.00000000e-01   0.00000000e+00 
  0.00000000e+00   6.00000000e-01   1.00000000e-01 
  0.00000000e+00   6.00000000e-01   2.00000000e-01 
  0.00000000e+00   6.00000000e-01   3.00000000e-01 
  0.00000000e+00   6.00000000e-01   4.00000000e-01 
  0.00000000e+00   6.00000000e-01   5.00000000e-01 
  0.00000000e+00   6.00000000e-01   6.00000000e-01 
  0.00000000e+00   6.00000000e-01   7.00000000e-01 
  0.00000000e+00   6.00000000e-01   8.00000000e-01 
  0.00000000e+00   6.00000000e-01   9.00000000e-01 
  0.00000000e+00   7.00000000e-01   0.00000000e+00 
  0.00000000e+00   7.00000000e-01   1.00000000e-01 
  0.00000000e+00   7.00000000e-01   2.00000000e-01 
  0.00000000e+00   7.00000000e-01   3.00000000e-01 
  0.00000000e+00   7.00000000e-01   4.00000000e-01 
  0.00000000e+00   7.00000000e-01   5.00000000e-01 
  0.00000000e+00   7.00000000e-01   6.00000000e-01 
  0.00000000e+00   7.00000000e-01   7.00000000e-01 
  0.00000000e+00   7.00000000e-01   8.00000000e-01 
  0.00000000e+00   7.00000000e-01   9.00000000e-01 
  0.00000000e+00   8.00000000e-01   0.00000000e+00 
  0.00000000e+00   8.00000000e-01   1.00000000e-01 
  0.00000000e+00   8.00000000e-01   2.00000000e-01 
  0.00000000e+00   8.00000000e-01   3.00000000e-01 
  0.00000000e+00   8.00000000e-01   4.00000000e-01 
  0.00000000e+00   8.00000000e-01   5.00000000e-01 
  0.00000000e+00   8.00000000e-01   6.00000000e-01 
  0.00000000e+00   8.00000000e-01   7.00000000e-01 
  0.00000000e+00   8.00000000e-01   8.00000000e-01 
  0.00000000e+00   8.00000000e-01   9.00000000e-01 
  0.00000000e+00   9.00000000e-01   0.00000000e+00 
  0.00000000e+00   9.00000000e-01   1.00000000e-01 
  0.00000000e+00   9.00000000e-01   2.00000000e-01 
  0.00000000e+00   9.00000000e-01   3.00000000e-01 
  0.00000000e+00   9.00000000e-01   4.00000000e-01 
  0.00000000e+00   9.00000000e-01   5.00000000e-01 
  0.00000000e+00   9.00000000e-01   6.00000000e-01 
  0.00000000e+00   9.00000000e-01   7.00000000e-01 
  0.00000000e+00   9.00000000e-01   8.00000000e-01 
  0.00000000e+00   9.00000000e-01   9.00000000e-01 
  1.00000000e-01   0.00000000e+00   0.00000000e+00 
  1.00000000e-01   0.00000000e+00   1.00000000e-01 
  1.00000000e-01   0.00000000e+00   2.00000000e-01 
  1.00000000e-01   0.00000000e+00   3.00000000e-01 
  1.00000000e-01   0.00000000e+00   4.00000000e-01 
  1.00000000e-01   0.00000000e+00   5.00000000e-01 
  1.00000000e-01   0.00000000e+00   6.00000000e-01 
  1.00000000e-01   0.00000000e+00   7.00000000e-01 
  1.00000000e-01   0.00000000e+00   8.00000000e-01 
  1.00000000e-01   0.00000000e+00   9.00000000e-01 
  1.00000000e-01   1.00000000e-01   0.00000000e+00 
  1.00000000e-01   1.00000000e-01   1.00000000e-01 
  1.00000000e-01   1.00000000e-01   2.00000000e-01 
  1.00000000e-01   1.00000000e-01   3.00000000e-01 
  1.00000000e-01   1.00000000e-01   4.00000000e-01 
  1.00000000e-01   1.00000000e-01   5.00000000e-01 
  1.00000000e-01   1.00000000e-01   6.00000000e-01 
  1.00000000e-01   1.00000000e-01   7.00000000e-01 
  1.00000000e-01   1.00000000e-01   8.00000000e-01 
  1.00000000e-01   1.00000000e-01   9.00000000e-01 
  1.00000000e-01   2.00000000e-01   0.00000000e+00 
  1.00000000e-01   2.00000000e-01   1.00000000e-01 
  1.00000000e-01   2.00000000e-01   2.00000000e-01 
  1.00000000e-01   2.00000000e-01   3.00000000e-01 
  1.00000000e-01   2.00000000e-01   4.00000000e-01 
  1.00000000e-01   2.00000000e-01   5.00000000e-01 
  1.00000000e-01   2.00000000e-01   6.00000000e-01 
  1.00000000e-01   2.00000000e-01   7.00000000e-01 
  1.00000000e-01   2.00000000e-01   8.00000000e-01 
  1.00000000e-01   2.00000000e-01   9.00000000e-01 
  1.00000000e-01   3.00000000e-01   0.00000000e+00 
  1.00000000e-01   3.00000000e-01   1.00000000e-01 
  1.00000000e-01   3.00000000e-01   2.00000000e-01 
  1.00000000e-01   3.00000000e-01   3.00000000e-01 
  1.00000000e-01   3.00000000e-01   4.00000000e-01 
  1.00000000e-01   3.00000000e-01   5.00000000e-01 
  1.00000000e-01   3.00000000e-01   6.00000000e-01 
  1.00000000e-01   3.00000000e-01   7.00000000e-01 
  1.00000000e-01   3.00000000e-01   8.00000000e-01 
  1.00000000e-01   3.00000000e-01   9.00000000e-01 
  1.00000000e-01   4.00000000e-01   0.00000000e+00 
  1.00000000e-01   4.00000000e-01   1.00000000e-01 
  1.00000000e-01   4.00000000e-01   2.00000000e-01 
  1.00000000e-01   4.00000000e-01   3.00000000e-01 
  1.00000000e-01   4.00000000e-01   4.00000000e-01 
  1.00000000e-01   4.00000000e-01   5.00000000e-01 
  1.00000000e-01   4.00000000e-01   6.00000000e-01 
  1.00000000e-01   4.00000000e-01   7.00000000e-01 
  1.00000000e-01   4.00000000e-01   8.00000000e-01 
  1.00000000e-01   4.00000000e-01   9.00000000e-01 
  1.00000000e-01   5.00000000e-01   0.00000000e+00 
  1.00000000e-01   5.00000000e-01   1.00000000e-01 
  1.00000000e-01   5.00000000e-01   2.00000000e-01 
  1.00000000e-01   5.00000000e-01   3.00000000e-01 
  1.00000000e-01   5.00000000e-01   4.00000000e-01 
  1.00000000e-01   5.00000000e-01   5.00000000e-01 
  1.00000000e-01   5.00000000e-01   6.00000000e-01 
  1.00000000e-01   5.00000000e-01   7.00000000e-01 
  1.00000000e-01   5.00000000e-01   8.00000000e-01 
  1.00000000e-01   5.00000000e-01   9.00000000e-01 
  1.00000000e-01   6.00000000e-01   0.00000000e+00 
  1.00000000e-01   6.00000000e-01   1.00000000e-01 
  1.00000000e-01   6.00000000e-01   2.00000000e-01 
  1.00000000e-01   6.00000000e-01   3.00000000e-01 
  1.00000000e-01   6.00000000e-01   4.00000000e-01 
  1.00000000e-01   6.00000000e-01   5.00000000e-01 
  1.00000000e-01   6.00000000e-01   6.00000000e-01 
  1.00000000e-01   6.00000000e-01   7.00000000e-01 
  1.00000000e-01   6.00000000e-01   8.00000000e-01 
  1.00000000e-01   6.00000000e-01   9.00000000e-01 
  1.00000000e-01   7.00000000e-01   0.00000000e+00 
  1.00000000e-01   7.00000000e-01   1.00000000e-01 
  1.00000000e-01   7.00000000e-01   2.00000000e-01 
  1.00000000e-01   7.00000000e-01   3.00000000e-01 
  1.00000000e-01   7.00000000e-01   4.00000000e-01 
  1.00000000e-01   7.00000000e-01   5.00000000e-01 
  1.00000000e-01   7.00000000e-01   6.00000000e-01 
  1.00000000e-01   7.00000000e-01   7.00000000e-01 
  1.00000000e-01   7.00000000e-01   8.00000000e-01 
  1.00000000e-01   7.00000000e-01   9.00000000e-01 
  1.00000000e-01   8.00000000e-01   0.00000000e+00 
  1.00000000e-01   8.00000000e-01   1.00000000e-01 
  1.00000000e-01   8.00000000e-01   2.00000000e-01 
  1.00000000e-01   8.00000000e-01   3.00000000e-01 
  1.00000000e-01   8.00000000e-01   4.00000000e-01 
  1.00000000e-01   8.00000000e-01   5.00000000e-01 
  1.00000000e-01   8.00000000e-01   6.00000000e-01 
  1.00000000e-01   8.00000000e-01   7.00000000e-01 
  1.00000000e-01   8.00000000e-01   8.00000000e-01 
[...]
POINT_DATA   1000
FIELD solution 1
u 3   1000 DOUBLE
   -1.87146439e-04     3.60006162e-05     3.19591360e-05 
   -1.84051099e-04     3.48712765e-05     2.30262673e-05 
   -1.86127736e-04     3.91294853e-05     1.43167927e-05 
   -1.88623848e-04     4.09321199e-05     8.40743074e-06 
   -1.88322473e-04     4.26015965e-05     2.52385611e-06 
   -1.88322290e-04     4.26023607e-05    -2.52714949e-06 
   -1.88623552e-04     4.09323968e-05    -8.40996064e-06 
   -1.86128142e-04     3.91314686e-05    -1.43169084e-05 
   -1.84052040e-04     3.48707355e-05    -2.30275130e-05 
   -1.87095451e-04     3.59765073e-05    -3.19541495e-05 
   -1.83136550e-04     2.22295372e-05     3.44249193e-05 
   -1.76925490e-04     2.44637750e-05     2.43855520e-05 
   -1.78984986e-04     2.58450391e-05     1.49994904e-05 
   -1.81380378e-04     2.71075894e-05     9.00978285e-06 
   -1.80995570e-04     2.80143576e-05     2.62175341e-06 
   -1.80995527e-04     2.80142963e-05    -2.62633288e-06 
   -1.81380223e-04     2.71084067e-05    -9.01250896e-06 
   -1.78985472e-04     2.58453996e-05    -1.50026881e-05 
   -1.76925272e-04     2.44778488e-05    -2.43999479e-05 
   -1.83137739e-04     2.22302341e-05    -3.44246703e-05 
   -1.85821422e-04     1.29466639e-05     3.90687516e-05 
   -1.78937184e-04     1.45877505e-05     2.56790730e-05 
   -1.79444455e-04     1.64029567e-05     1.65043230e-05 
   -1.82013327e-04     1.60384306e-05     9.07915761e-06 
   -1.81564166e-04     1.65579420e-05     2.61034513e-06 
   -1.81564033e-04     1.65588755e-05    -2.61447715e-06 
   -1.82013160e-04     1.60386614e-05    -9.08287156e-06 
   -1.79444171e-04     1.64156286e-05    -1.65169384e-05 
   -1.78937672e-04     1.45913828e-05    -2.56793301e-05 
   -1.85821736e-04     1.29475224e-05    -3.90708534e-05 
   -1.88812275e-04     7.57106167e-06     4.08898749e-05 
   -1.81419055e-04     8.66619377e-06     2.70999894e-05 
   -1.82041766e-04     8.95903881e-06     1.58799078e-05 
   -1.84328121e-04     9.80204247e-06     9.77869629e-06 
   -1.84134931e-04     9.49558297e-06     2.71854453e-06 
   -1.84134862e-04     9.49575980e-06    -2.72275545e-06 
   -1.84327841e-04     9.81381259e-06    -9.79048647e-06 
   -1.82041597e-04     8.96298526e-06    -1.58804041e-05 
   -1.81418877e-04     8.66937021e-06    -2.71009516e-05 
   -1.88811916e-04     7.57534543e-06    -4.08901954e-05 
   -1.88349910e-04     1.85943354e-06     4.25944469e-05 
   -1.81008616e-04     2.48642277e-06     2.79159562e-05 
   -1.81567875e-04     2.49994199e-06     1.64693585e-05 
   -1.84135569e-04     2.63617242e-06     9.41160467e-06 
   -1.83552792e-04     2.90242183e-06     2.90090578e-06 
   -1.83552727e-04     2.91219829e-06    -2.91371434e-06 
   -1.84135437e-04     2.63819784e-06    -9.41280837e-06 
   -1.81567736e-04     2.50144417e-06    -1.64706953e-05 
   -1.81008528e-04     2.48868794e-06    -2.79164971e-05 
   -1.88349757e-04     1.86103453e-06    -4.25949022e-05 
   -1.88349910e-04    -1.85943354e-06     4.25944469e-05 
   -1.81008616e-04    -2.48642277e-06     2.79159562e-05 
   -1.81567875e-04    -2.49994199e-06     1.64693585e-05 
   -1.84135569e-04    -2.63617242e-06     9.41160467e-06 
   -1.83552792e-04    -2.90242183e-06     2.90090578e-06 
   -1.83552727e-04    -2.91219829e-06    -2.91371434e-06 
   -1.84135437e-04    -2.63819784e-06    -9.41280837e-06 
   -1.81567736e-04    -2.50144417e-06    -1.64706953e-05 
   -1.81008528e-04    -2.48868794e-06    -2.79164971e-05 
   -1.88349757e-04    -1.86103453e-06    -4.25949022e-05 
   -1.88812275e-04    -7.57106167e-06     4.08898749e-05 
   -1.81419055e-04    -8.66619377e-06     2.70999894e-05 
   -1.82041766e-04    -8.95903881e-06     1.58799078e-05 
   -1.84328121e-04    -9.80204247e-06     9.77869629e-06 
   -1.84134931e-04    -9.49558297e-06     2.71854453e-06 
   -1.84134862e-04    -9.49575980e-06    -2.72275545e-06 
   -1.84327841e-04    -9.81381259e-06    -9.79048647e-06 
   -1.82041597e-04    -8.96298526e-06    -1.58804041e-05 
   -1.81418877e-04    -8.66937021e-06    -2.71009516e-05 
   -1.88811916e-04    -7.57534543e-06    -4.08901954e-05 
   -1.85821422e-04    -1.29466639e-05     3.90687516e-05 
   -1.78937184e-04    -1.45877505e-05     2.56790730e-05 
   -1.79444455e-04    -1.64029567e-05     1.65043230e-05 
   -1.82013327e-04    -1.60384306e-05     9.07915761e-06 
   -1.81564166e-04    -1.65579420e-05     2.61034513e-06 
   -1.81564033e-04    -1.65588755e-05    -2.61447715e-06 
   -1.82013160e-04    -1.60386614e-05    -9.08287156e-06 
   -1.79444171e-04    -1.64156286e-05    -1.65169384e-05 
   -1.78937672e-04    -1.45913828e-05    -2.56793301e-05 
   -1.85821736e-04    -1.29475224e-05    -3.90708534e-05 
   -1.83136550e-04    -2.22295372e-05     3.44249193e-05 
   -1.76925490e-04    -2.44637750e-05     2.43855520e-05 
   -1.78984986e-04    -2.58450391e-05     1.49994904e-05 
   -1.81380378e-04    -2.71075894e-05     9.00978285e-06 
   -1.80995570e-04    -2.80143576e-05     2.62175341e-06 
   -1.80995527e-04    -2.80142963e-05    -2.62633288e-06 
   -1.81380223e-04    -2.71084067e-05    -9.01250896e-06 
   -1.78985472e-04    -2.58453996e-05    -1.50026881e-05 
   -1.76925272e-04    -2.44778488e-05    -2.43999479e-05 
   -1.83137739e-04    -2.22302341e-05    -3.44246703e-05 
   -1.87146439e-04    -3.60006162e-05     3.19591360e-05 
   -1.84051099e-04    -3.48712765e-05     2.30262673e-05 
   -1.86127736e-04    -3.91294853e-05     1.43167927e-05 
   -1.88623848e-04    -4.09321199e-05     8.40743074e-06 
   -1.88322473e-04    -4.26015965e-05     2.52385611e-06 
   -1.88322290e-04    -4.26023607e-05    -2.52714949e-06 
   -1.88623552e-04    -4.09323968e-05    -8.40996064e-06 
   -1.86128142e-04    -3.91314686e-05    -1.43169084e-05 
   -1.84052040e-04    -3.48707355e-05    -2.30275130e-05 
   -1.87095451e-04    -3.59765073e-05    -3.19541495e-05 
   -1.43275811e-04     3.40724744e-05     3.34771029e-05 
   -1.42870365e-04     3.25624079e-05     2.66534630e-05 
   -1.45271401e-04     3.56606123e-05     1.76535227e-05 
   -1.46639012e-04     3.75753871e-05     9.67365183e-06 
   -1.46889956e-04     3.91576437e-05     2.63997585e-06 
   -1.46889928e-04     3.91580089e-05    -2.64115123e-06 
   -1.46639228e-04     3.75757984e-05    -9.67373127e-06 
   -1.45272426e-04     3.56624351e-05    -1.76509436e-05 
   -1.42869751e-04     3.25620892e-05    -2.66528344e-05 
   -1.43259157e-04     3.40686261e-05    -3.34739105e-05 
   -1.42044723e-04     2.71840024e-05     3.24821969e-05 
   -1.41940687e-04     2.87184929e-05     2.88995061e-05 
   -1.43772967e-04     2.90010678e-05     1.82911302e-05 
   -1.45058325e-04     3.02152608e-05     1.02830367e-05 
   -1.45245123e-04     3.10448314e-05     3.05536712e-06 
   -1.45245161e-04     3.10447599e-05    -3.05679850e-06 
   -1.45058709e-04     3.02158691e-05    -1.02829501e-05 
   -1.43771902e-04     2.90015339e-05    -1.82915902e-05 
   -1.41945118e-04     2.87157695e-05    -2.88969278e-05 
   -1.42044615e-04     2.71826219e-05    -3.24819545e-05 
   -1.45417245e-04     1.78121924e-05     3.56692861e-05 
   -1.43767177e-04     1.82702155e-05     2.90116494e-05 
   -1.45508699e-04     1.99550408e-05     2.00157108e-05 
   -1.46953809e-04     1.94486102e-05     1.08000002e-05 
   -1.47308419e-04     1.96951570e-05     3.09025337e-06 
   -1.47308704e-04     1.96958324e-05    -3.09167024e-06 
   -1.46953075e-04     1.94486575e-05    -1.08015778e-05 
   -1.45510128e-04     1.99556614e-05    -2.00162757e-05 
   -1.43766237e-04     1.82707454e-05    -2.90119243e-05 
   -1.45418417e-04     1.78096574e-05    -3.56711008e-05 
   -1.46706700e-04     9.81975005e-06     3.75734631e-05 
   -1.45061275e-04     1.02189964e-05     3.03039512e-05 
   -1.46964057e-04     1.08041494e-05     1.94474815e-05 
   -1.48176472e-04     1.15609006e-05     1.15543331e-05 
   -1.48629751e-04     1.07668019e-05     3.21901956e-06 
   -1.48629131e-04     1.07667693e-05    -3.22095386e-06 
   -1.48177238e-04     1.15628535e-05    -1.15562971e-05 
   -1.46963307e-04     1.08057748e-05    -1.94475940e-05 
   -1.45061626e-04     1.02191285e-05    -3.03045506e-05 
   -1.46706758e-04     9.82013918e-06    -3.75738849e-05 
   -1.47018244e-04     2.65277273e-06     3.91543953e-05 
   -1.45292003e-04     3.02994281e-06     3.10241205e-05 
   -1.47335245e-04     3.07930633e-06     1.96901781e-05 
   -1.48643539e-04     3.21383351e-06     1.07608606e-05 
   -1.48880852e-04     3.42084708e-06     3.42003923e-06 
   -1.48881349e-04     3.42301607e-06    -3.42382392e-06 
   -1.48642617e-04     3.21495856e-06    -1.07615292e-05 
   -1.47334981e-04     3.07969302e-06    -1.96910109e-05 
   -1.45291519e-04     3.03058908e-06    -3.10243754e-05 
   -1.47017690e-04     2.65328026e-06    -3.91546178e-05 
   -1.47018244e-04    -2.65277273e-06     3.91543953e-05 
   -1.45292003e-04    -3.02994281e-06     3.10241205e-05 
   -1.47335245e-04    -3.07930633e-06     1.96901781e-05 
   -1.48643539e-04    -3.21383351e-06     1.07608606e-05 
   -1.48880852e-04    -3.42084708e-06     3.42003923e-06 
   -1.48881349e-04    -3.42301607e-06    -3.42382392e-06 
   -1.48642617e-04    -3.21495856e-06    -1.07615292e-05 
   -1.47334981e-04    -3.07969302e-06    -1.96910109e-05 
   -1.45291519e-04    -3.03058908e-06    -3.10243754e-05 
   -1.47017690e-04    -2.65328026e-06    -3.91546178e-05 
   -1.46706700e-04    -9.81975005e-06     3.75734631e-05 
   -1.45061275e-04    -1.02189964e-05     3.03039512e-05 
   -1.46964057e-04    -1.08041494e-05     1.94474815e-05 
   -1.48176472e-04    -1.15609006e-05     1.15543331e-05 
   -1.48629751e-04    -1.07668019e-05     3.21901956e-06 
   -1.48629131e-04    -1.07667693e-05    -3.22095386e-06 
   -1.48177238e-04    -1.15628535e-05    -1.15562971e-05 
   -1.46963307e-04    -1.08057748e-05    -1.94475940e-05 
   -1.45061626e-04    -1.02191285e-05    -3.03045506e-05 
   -1.46706758e-04    -9.82013918e-06    -3.75738849e-05 
   -1.45417245e-04    -1.78121924e-05     3.56692861e-05 
   -1.43767177e-04    -1.82702155e-05     2.90116494e-05 
   -1.45508699e-04    -1.99550408e-05     2.00157108e-05 
   -1.46953809e-04    -1.94486102e-05     1.08000002e-05 
   -1.47308419e-04    -1.96951570e-05     3.09025337e-06 
   -1.47308704e-04    -1.96958324e-05    -3.09167024e-06 
   -1.46953075e-04    -1.94486575e-05    -1.08015778e-05 
   -1.45510128e-04    -1.99556614e-05    -2.00162757e-05 
   -1.43766237e-04    -1.82707454e-05    -2.90119243e-05 
   -1.45418417e-04    -1.78096574e-05    -3.56711008e-05 
   -1.42044723e-04    -2.71840024e-05     3.24821969e-05 
   -1.41940687e-04    -2.87184929e-05     2.88995061e-05 
   -1.43772967e-04    -2.90010678e-05     1.82911302e-05 
   -1.45058325e-04    -3.02152608e-05     1.02830367e-05 
   -1.45245123e-04    -3.10448314e-05     3.05536712e-06 
   -1.45245161e-04    -3.10447599e-05    -3.05679850e-06 
   -1.45058709e-04    -3.02158691e-05    -1.02829501e-05 
   -1.43771902e-04    -2.90015339e-05    -1.82915902e-05 
   -1.41945118e-04    -2.87157695e-05    -2.88969278e-05 
   -1.42044615e-04    -2.71826219e-05    -3.24819545e-05 
   -1.43275811e-04    -3.40724744e-05     3.34771029e-05 
   -1.42870365e-04    -3.25624079e-05     2.66534630e-05 
   -1.45271401e-04    -3.56606123e-05     1.76535227e-05 
   -1.46639012e-04    -3.75753871e-05     9.67365183e-06 
   -1.46889956e-04    -3.91576437e-05     2.63997585e-06 
   -1.46889928e-04    -3.91580089e-05    -2.64115123e-06 
   -1.46639228e-04    -3.75757984e-05    -9.67373127e-06 
   -1.45272426e-04    -3.56624351e-05    -1.76509436e-05 
   -1.42869751e-04    -3.25620892e-05    -2.66528344e-05 
   -1.43259157e-04    -3.40686261e-05    -3.34739105e-05 
   -1.15713055e-04     3.20477730e-05     3.20767398e-05 
   -1.11653725e-04     3.02154327e-05     2.06392787e-05 
   -1.13147327e-04     3.20324375e-05     1.31317558e-05 
   -1.14525193e-04     3.30305938e-05     5.30860001e-06 
   -1.15807804e-04     3.38394324e-05     1.12188764e-06 
   -1.15807878e-04     3.38398473e-05    -1.12254365e-06 
   -1.14525277e-04     3.30308549e-05    -5.30922915e-06 
   -1.13146617e-04     3.20324048e-05    -1.31330172e-05 
   -1.11651899e-04     3.02153829e-05    -2.06398756e-05 
   -1.15700645e-04     3.20469047e-05    -3.20758597e-05 
   -1.11342252e-04     2.05824465e-05     3.01847715e-05 
   -1.06787754e-04     2.31668825e-05     2.32190103e-05 
   -1.08195019e-04     2.14197868e-05     1.41725852e-05 
   -1.09168169e-04     2.21431853e-05     5.90202837e-06 
   -1.10519588e-04     2.24305193e-05     1.30560646e-06 
   -1.10519207e-04     2.24304481e-05    -1.30658484e-06 
   -1.09167309e-04     2.21431764e-05    -5.90315853e-06 
   -1.08195876e-04     2.14198715e-05    -1.41722303e-05 
   -1.06791171e-04     2.31666610e-05    -2.32187131e-05 
   -1.11340789e-04     2.05829401e-05    -3.01847095e-05 
   -1.13149782e-04     1.38034168e-05     3.20291854e-05 
   -1.08240288e-04     1.42131895e-05     2.14506531e-05 
   -1.09559178e-04     1.60629144e-05     1.61603517e-05 
   -1.11241250e-04     1.46448675e-05     6.09929671e-06 
   -1.12585435e-04     1.46755907e-05     1.29941941e-06 
   -1.12584701e-04     1.46758359e-05    -1.30088044e-06 
   -1.11241334e-04     1.46451655e-05    -6.09949115e-06 
   -1.09562289e-04     1.60628988e-05    -1.61602598e-05 
   -1.08241111e-04     1.42129256e-05    -2.14506775e-05 
   -1.13149340e-04     1.38044112e-05    -3.20291589e-05 
   -1.14745526e-04     5.51607017e-06     3.30411507e-05 
   -1.09263905e-04     5.88513021e-06     2.22126354e-05 
   -1.11269786e-04     6.12750720e-06     1.46533387e-05 
   -1.12359748e-04     7.01372629e-06     7.00480605e-06 
   -1.13943501e-04     5.71663145e-06     1.30303501e-06 
   -1.13943438e-04     5.71673303e-06    -1.30417281e-06 
   -1.12359431e-04     7.01533992e-06    -7.00642649e-06 
   -1.11269818e-04     6.12774589e-06    -1.46536987e-05 
   -1.09262965e-04     5.88634877e-06    -2.22126412e-05 
   -1.14745333e-04     5.51700337e-06    -3.30414092e-05 
   -1.15909120e-04     9.52064995e-07     3.38395774e-05 
   -1.10548982e-04     1.25753080e-06     2.24017349e-05 
   -1.12610796e-04     1.25662806e-06     1.46412383e-05 
   -1.13954459e-04     1.27962478e-06     5.69251089e-06 
   -1.15244099e-04     1.54689929e-06     1.54640289e-06 
   -1.15243242e-04     1.54851778e-06    -1.54901418e-06 
   -1.13953659e-04     1.27971423e-06    -5.69298479e-06 
   -1.12609590e-04     1.25728098e-06    -1.46416312e-05 
   -1.10548296e-04     1.25797748e-06    -2.24020103e-05 
   -1.15908685e-04     9.52104671e-07    -3.38398987e-05 
   -1.15909120e-04    -9.52064995e-07     3.38395774e-05 
   -1.10548982e-04    -1.25753080e-06     2.24017349e-05 
   -1.12610796e-04    -1.25662806e-06     1.46412383e-05 
   -1.13954459e-04    -1.27962478e-06     5.69251089e-06 
   -1.15244099e-04    -1.54689929e-06     1.54640289e-06 
   -1.15243242e-04    -1.54851778e-06    -1.54901418e-06 
   -1.13953659e-04    -1.27971423e-06    -5.69298479e-06 
   -1.12609590e-04    -1.25728098e-06    -1.46416312e-05 
   -1.10548296e-04    -1.25797748e-06    -2.24020103e-05 
   -1.15908685e-04    -9.52104671e-07    -3.38398987e-05 
   -1.14745526e-04    -5.51607017e-06     3.30411507e-05 
   -1.09263905e-04    -5.88513021e-06     2.22126354e-05 
   -1.11269786e-04    -6.12750720e-06     1.46533387e-05 
   -1.12359748e-04    -7.01372629e-06     7.00480605e-06 
   -1.13943501e-04    -5.71663145e-06     1.30303501e-06 
   -1.13943438e-04    -5.71673303e-06    -1.30417281e-06 
   -1.12359431e-04    -7.01533992e-06    -7.00642649e-06 
   -1.11269818e-04    -6.12774589e-06    -1.46536987e-05 
   -1.09262965e-04    -5.88634877e-06    -2.22126412e-05 
   -1.14745333e-04    -5.51700337e-06    -3.30414092e-05 
   -1.13149782e-04    -1.38034168e-05     3.20291854e-05 
   -1.08240288e-04    -1.42131895e-05     2.14506531e-05 
   -1.09559178e-04    -1.60629144e-05     1.61603517e-05 
   -1.11241250e-04    -1.46448675e-05     6.09929671e-06 
   -1.12585435e-04    -1.46755907e-05     1.29941941e-06 
   -1.12584701e-04    -1.46758359e-05    -1.30088044e-06 
   -1.11241334e-04    -1.46451655e-05    -6.09949115e-06 
   -1.09562289e-04    -1.60628988e-05    -1.61602598e-05 
   -1.08241111e-04    -1.42129256e-05    -2.14506775e-05 
   -1.13149340e-04    -1.38044112e-05    -3.20291589e-05 
   -1.11342252e-04    -2.05824465e-05     3.01847715e-05 
   -1.06787754e-04    -2.31668825e-05     2.32190103e-05 
   -1.08195019e-04    -2.14197868e-05     1.41725852e-05 
   -1.09168169e-04    -2.21431853e-05     5.90202837e-06 
   -1.10519588e-04    -2.24305193e-05     1.30560646e-06 
   -1.10519207e-04    -2.24304481e-05    -1.30658484e-06 
   -1.09167309e-04    -2.21431764e-05    -5.90315853e-06 
   -1.08195876e-04    -2.14198715e-05    -1.41722303e-05 
   -1.06791171e-04    -2.31666610e-05    -2.32187131e-05 
   -1.11340789e-04    -2.05829401e-05    -3.01847095e-05 
   -1.15713055e-04    -3.20477730e-05     3.20767398e-05 
   -1.11653725e-04    -3.02154327e-05     2.06392787e-05 
   -1.13147327e-04    -3.20324375e-05     1.31317558e-05 
   -1.14525193e-04    -3.30305938e-05     5.30860001e-06 
   -1.15807804e-04    -3.38394324e-05     1.12188764e-06 
   -1.15807878e-04    -3.38398473e-05    -1.12254365e-06 
   -1.14525277e-04    -3.30308549e-05    -5.30922915e-06 
   -1.13146617e-04    -3.20324048e-05    -1.31330172e-05 
   -1.11651899e-04    -3.02153829e-05    -2.06398756e-05 
   -1.15700645e-04    -3.20469047e-05    -3.20758597e-05 
   -8.15496442e-05     2.44780855e-05     2.55477407e-05 
   -7.87061076e-05     2.16440301e-05     1.29489677e-05 
   -7.89076763e-05     2.24470030e-05     6.45907206e-06 
   -8.02270899e-05     2.25208059e-05     3.18404188e-06 
   -8.19089431e-05     2.29013138e-05     9.40880306e-07 
   -8.19087292e-05     2.29013234e-05    -9.41684983e-07 
   -8.02260180e-05     2.25208511e-05    -3.18497279e-06 
   -7.89070015e-05     2.24473180e-05    -6.46004243e-06 
   -7.87055769e-05     2.16445367e-05    -1.29496271e-05 
   -8.15434460e-05     2.44785219e-05    -2.55481596e-05 
   -7.89811134e-05     1.33610728e-05     2.17298750e-05 
   -7.49383499e-05     1.58676478e-05     1.57943055e-05 
   -7.54866473e-05     1.29703811e-05     7.27632911e-06 
   -7.65147383e-05     1.30492875e-05     3.40078893e-06 
   -7.83703531e-05     1.30755627e-05     1.08294065e-06 
   -7.83697061e-05     1.30756098e-05    -1.08409638e-06 
   -7.65147315e-05     1.30494009e-05    -3.40057758e-06 
   -7.54868602e-05     1.29706419e-05    -7.27649524e-06 
   -7.49414450e-05     1.58677498e-05    -1.57943688e-05 
   -7.89805260e-05     1.33617702e-05    -2.17303667e-05 
   -7.92841197e-05     6.94117325e-06     2.24508114e-05 
   -7.55685475e-05     7.37245295e-06     1.30596778e-05 
   -7.54228408e-05     9.22527056e-06     9.25125369e-06 
   -7.69868944e-05     6.97129041e-06     3.58512128e-06 
   -7.89147004e-05     6.88660518e-06     1.06534153e-06 
   -7.89146446e-05     6.88662415e-06    -1.06608186e-06 
   -7.69866933e-05     6.97140305e-06    -3.58523014e-06 
   -7.54240006e-05     9.22540575e-06    -9.25139739e-06 
   -7.55687264e-05     7.37263159e-06    -1.30599279e-05 
   -7.92833390e-05     6.94223388e-06    -2.24511237e-05 
   -8.03067375e-05     3.23385328e-06     2.25213642e-05 
   -7.65789997e-05     3.36983312e-06     1.30794140e-05 
   -7.69926222e-05     3.60820867e-06     6.98055417e-06 
   -7.80768207e-05     4.39677058e-06     4.39045746e-06 
   -8.01932148e-05     2.99267886e-06     1.08468907e-06 
   -8.01929798e-05     2.99278846e-06    -1.08542867e-06 
   -7.80762203e-05     4.39704218e-06    -4.39073549e-06 
   -7.69924109e-05     3.60832227e-06    -6.98068246e-06 
   -7.65789318e-05     3.36967668e-06    -1.30795174e-05 
   -8.03055575e-05     3.23488104e-06    -2.25214105e-05 
   -8.20069743e-05     8.10185969e-07     2.29006986e-05 
   -7.84003549e-05     1.04592336e-06     1.30520541e-05 
   -7.89313851e-05     1.03883406e-06     6.86591509e-06 