# vtk DataFile Version 2.0 
generated by Lattice Boltzmann Method time =   1.32790562e+00
ASCII 
DATASET UNSTRUCTURED_GRID

POINTS   1000 FLOAT 
  0.00000000e+00   0.00000000e+00   0.00000000e+00 
  0.00000000e+00   0.00000000e+00   1.00000000e-01 
  0.00000000e+00   0.00000000e+00   2.00000000e-01 
  0.00000000e+00   0.00000000e+00   3.00000000e-01 
  0.00000000e+00   0.00000000e+00   4.00000000e-01 
  0.00000000e+00   0.00000000e+00   5.00000000e-01 
  0.00000000e+00   0.00000000e+00   6.00000000e-01 
  0.00000000e+00   0.00000000e+00   7.00000000e-01 
  0.00000000e+00   0.00000000e+00   8.00000000e-01 
  0.00000000e+00   0.00000000e+00   9.00000000e-01 
  0.00000000e+00   1.00000000e-01   0.00000000e+00 
  0.00000000e+00   1.00000000e-01   1.00000000e-01 
  0.00000000e+00   1.00000000e-01   2.00000000e-01 
  0.00000000e+00   1.00000000e-01   3.00000000e-01 
  0.00000000e+00   1.00000000e-01   4.00000000e-01 
  0.00000000e+00   1.00000000e-01   5.00000000e-01 
  0.00000000e+00   1.00000000e-01   6.00000000e-01 
  0.00000000e+00   1.00000000e-01   7.00000000e-01 
  0.00000000e+00   1.00000000e-01   8.00000000e-01 
  0.00000000e+00   1.00000000e-01   9.00000000e-01 
  0.00000000e+00   2.00000000e-01   0.00000000e+00 
  0.00000000e+00   2.00000000e-01   1.00000000e-01 
  0.00000000e+00   2.00000000e-01   2.00000000e-01 
  0.00000000e+00   2.00000000e-01   3.00000000e-01 
  0.00000000e+00   2.00000000e-01   4.00000000e-01 
  0.00000000e+00   2.00000000e-01   5.00000000e-01 
  0.00000000e+00   2.00000000e-01   6.00000000e-01 
  0.00000000e+00   2.00000000e-01   7.00000000e-01 
  0.00000000e+00   2.00000000e-01   8.00000000e-01 
  0.00000000e+00   2.00000000e-01   9.00000000e-01 
  0.00000000e+00   3.00000000e-01   0.00000000e+00 
  0.00000000e+00   3.00000000e-01   1.00000000e-01 
  0.00000000e+00   3.00000000e-01   2.00000000e-01 
  0.00000000e+00   3.00000000e-01   3.00000000e-01 
  0.00000000e+00   3.00000000e-01   4.00000000e-01 
  0.00000000e+00   3.00000000e-01   5.00000000e-01 
  0.00000000e+00   3.00000000e-01   6.00000000e-01 
  0.00000000e+00   3.00000000e-01   7.00000000e-01 
  0.00000000e+00   3.00000000e-01   8.00000000e-01 
  0.00000000e+00   3.00000000e-01   9.00000000e-01 
  0.00000000e+00   4.00000000e-01   0.00000000e+00 
  0.00000000e+00   4.00000000e-01   1.00000000e-01 
  0.00000000e+00   4.00000000e-01   2.00000000e-01 
  0.00000000e+00   4.00000000e-01   3.00000000e-01 
  0.00000000e+00   4.00000000e-01   4.00000000e-01 
  0.00000000e+00   4.00000000e-01   5.00000000e-01 
  0.00000000e+00   4.00000000e-01   6.00000000e-01 
  0.00000000e+00   4.00000000e-01   7.00000000e-01 
  0.00000000e+00   4.00000000e-01   8.00000000e-01 
  0.00000000e+00   4.00000000e-01   9.00000000e-01 
  0.00000000e+00   5.00000000e-01   0.00000000e+00 
  0.00000000e+00   5.00000000e-01   1.00000000e-01 
  0.00000000e+00   5.00000000e-01   2.00000000e-01 
  0.00000000e+00   5.00000000e-01   3.00000000e-01 
  0.00000000e+00   5.00000000e-01   4.00000000e-01 
  0.00000000e+00   5.00000000e-01   5.00000000e-01 
  0.00000000e+00   5.00000000e-01   6.00000000e-01 
  0.00000000e+00   5.00000000e-01   7.00000000e-01 
  0.00000000e+00   5.00000000e-01   8.00000000e-01 
  0.00000000e+00   5.00000000e-01   9.00000000e-01 
  0.00000000e+00   6.00000000e-01   0.00000000e+00 
  0.00000000e+00   6.00000000e-01   1.00000000e-01 
  0.00000000e+00   6.00000000e-01   2.00000000e-01 
  0.00000000e+00   6.00000000e-01   3.00000000e-01 
  0.00000000e+00   6.00000000e-01   4.00000000e-01 
  0.00000000e+00   6.00000000e-01   5.00000000e-01 
  0.00000000e+00   6.00000000e-01   6.00000000e-01 
  0.00000000e+00   6.00000000e-01   7.00000000e-01 
  0.00000000e+00   6.00000000e-01   8.00000000e-01 
  0.00000000e+00   6.00000000e-01   9.00000000e-01 
  0.00000000e+00   7.00000000e-01   0.00000000e+00 
  0.00000000e+00   7.00000000e-01   1.00000000e-01 
  0.00000000e+00   7.00000000e-01   2.00000000e-01 
  0.00000000e+00   7.00000000e-01   3.00000000e-01 
  0.00000000e+00   7.00000000e-01   4.00000000e-01 
  0.00000000e+00   7.00000000e-01   5.00000000e-01 
  0.00000000e+00   7.00000000e-01   6.00000000e-01 
  0.00000000e+00   7.00000000e-01   7.00000000e-01 
  0.00000000e+00   7.00000000e-01   8.00000000e-01 
  0.00000000e+00   7.00000000e-01   9.00000000e-01 
  0.00000000e+00   8.00000000e-01   0.00000000e+00 
  0.00000000e+00   8.00000000e-01   1.00000000e-01 
  0.00000000e+00   8.00000000e-01   2.00000000e-01 
  0.00000000e+00   8.00000000e-01   3.00000000e-01 
  0.00000000e+00   8.00000000e-01   4.00000000e-01 
  0.00000000e+00   8.00000000e-01   5.00000000e-01 
  0.00000000e+00   8.00000000e-01   6.00000000e-01 
  0.00000000e+00   8.00000000e-01   7.00000000e-01 
  0.00000000e+00   8.00000000e-01   8.00000000e-01 
  0.00000000e+00   8.00000000e-01   9.00000000e-01 
  0.00000000e+00   9.00000000e-01   0.00000000e+00 
  0.00000000e+00   9.00000000e-01   1.00000000e-01 
  0.00000000e+00   9.00000000e-01   2.00000000e-01 
  0.00000000e+00   9.00000000e-01   3.00000000e-01 
  0.00000000e+00   9.00000000e-01   4.00000000e-01 
  0.00000000e+00   9.00000000e-01   5.00000000e-01 
  0.00000000e+00   9.00000000e-01   6.00000000e-01 
  0.00000000e+00   9.00000000e-01   7.00000000e-01 
  0.00000000e+00   9.00000000e-01   8.00000000e-01 
  0.00000000e+00   9.00000000e-01   9.00000000e-01 
  1.00000000e-01   0.00000000e+00   0.00000000e+00 
  1.00000000e-01   0.00000000e+00   1.00000000e-01 
  1.00000000e-01   0.00000000e+00   2.00000000e-01 
  1.00000000e-01   0.00000000e+00   3.00000000e-01 
  1.00000000e-01   0.00000000e+00   4.00000000e-01 
  1.00000000e-01   0.00000000e+00   5.00000000e-01 
  1.00000000e-01   0.00000000e+00   6.00000000e-01 
  1.00000000e-01   0.00000000e+00   7.00000000e-01 
  1.00000000e-01   0.00000000e+00   8.00000000e-01 
  1.00000000e-01   0.00000000e+00   9.00000000e-01 
  1.00000000e-01   1.00000000e-01   0.00000000e+00 
  1.00000000e-01   1.00000000e-01   1.00000000e-01 
  1.00000000e-01   1.00000000e-01   2.00000000e-01 
  1.00000000e-01   1.00000000e-01   3.00000000e-01 
  1.00000000e-01   1.00000000e-01   4.00000000e-01 
  1.00000000e-01   1.00000000e-01   5.00000000e-01 
  1.00000000e-01   1.00000000e-01   6.00000000e-01 
  1.00000000e-01   1.00000000e-01   7.00000000e-01 
  1.00000000e-01   1.00000000e-01   8.00000000e-01 
  1.00000000e-01   1.00000000e-01   9.00000000e-01 
  1.00000000e-01   2.00000000e-01   0.00000000e+00 
  1.00000000e-01   2.00000000e-01   1.00000000e-01 
  1.00000000e-01   2.00000000e-01   2.00000000e-01 
  1.00000000e-01   2.00000000e-01   3.00000000e-01 
  1.00000000e-01   2.00000000e-01   4.00000000e-01 
  1.00000000e-01   2.00000000e-01   5.00000000e-01 
  1.00000000e-01   2.00000000e-01   6.00000000e-01 
  1.00000000e-01   2.00000000e-01   7.00000000e-01 
  1.00000000e-01   2.00000000e-01   8.00000000e-01 
  1.00000000e-01   2.00000000e-01   9.00000000e-01 
  1.00000000e-01   3.00000000e-01   0.00000000e+00 
  1.00000000e-01   3.00000000e-01   1.00000000e-01 
  1.00000000e-01   3.00000000e-01   2.00000000e-01 
  1.00000000e-01   3.00000000e-01   3.00000000e-01 
  1.00000000e-01   3.00000000e-01   4.00000000e-01 
  1.00000000e-01   3.00000000e-01   5.00000000e-01 
  1.00000000e-01   3.00000000e-01   6.00000000e-01 
  1.00000000e-01   3.00000000e-01   7.00000000e-01 
  1.00000000e-01   3.00000000e-01   8.00000000e-01 
  1.00000000e-01   3.00000000e-01   9.00000000e-01 
  1.00000000e-01   4.00000000e-01   0.00000000e+00 
  1.00000000e-01   4.00000000e-01   1.00000000e-01 
  1.00000000e-01   4.00000000e-01   2.00000000e-01 
  1.00000000e-01   4.00000000e-01   3.00000000e-01 
  1.00000000e-01   4.00000000e-01   4.00000000e-01 
  1.00000000e-01   4.00000000e-01   5.00000000e-01 
  1.00000000e-01   4.00000000e-01   6.00000000e-01 
  1.00000000e-01   4.00000000e-01   7.00000000e-01 
  1.00000000e-01   4.00000000e-01   8.00000000e-01 
  1.00000000e-01   4.00000000e-01   9.00000000e-01 
  1.00000000e-01   5.00000000e-01   0.00000000e+00 
  1.00000000e-01   5.00000000e-01   1.00000000e-01 
  1.00000000e-01   5.00000000e-01   2.00000000e-01 
  1.00000000e-01   5.00000000e-01   3.00000000e-01 
  1.00000000e-01   5.00000000e-01   4.00000000e-01 
  1.00000000e-01   5.00000000e-01   5.00000000e-01 
  1.00000000e-01   5.00000000e-01   6.00000000e-01 
  1.00000000e-01   5.00000000e-01   7.00000000e-01 
  1.00000000e-01   5.00000000e-01   8.00000000e-01 
  1.00000000e-01   5.00000000e-01   9.00000000e-01 
  1.00000000e-01   6.00000000e-01   0.00000000e+00 
  1.00000000e-01   6.00000000e-01   1.00000000e-01 
  1.00000000e-01   6.00000000e-01   2.00000000e-01 
  1.00000000e-01   6.00000000e-01   3.00000000e-01 
  1.00000000e-01   6.00000000e-01   4.00000000e-01 
  1.00000000e-01   6.00000000e-01   5.00000000e-01 
  1.00000000e-01   6.00000000e-01   6.00000000e-01 
  1.00000000e-01   6.00000000e-01   7.00000000e-01 
  1.00000000e-01   6.00000000e-01   8.00000000e-01 
  1.00000000e-01   6.00000000e-01   9.00000000e-01 
  1.00000000e-01   7.00000000e-01   0.00000000e+00 
  1.00000000e-01   7.00000000e-01   1.00000000e-01 
  1.00000000e-01   7.00000000e-01   2.00000000e-01 
  1.00000000e-01   7.00000000e-01   3.00000000e-01 
  1.00000000e-01   7.00000000e-01   4.00000000e-01 
  1.00000000e-01   7.00000000e-01   5.00000000e-01 
  1.00000000e-01   7.00000000e-01   6.00000000e-01 
  1.00000000e-01   7.00000000e-01   7.00000000e-01 
  1.00000000e-01   7.00000000e-01   8.00000000e-01 
  1.00000000e-01   7.00000000e-01   9.00000000e-01 
  1.00000000e-01   8.00000000e-01   0.00000000e+00 
  1.00000000e-01   8.00000000e-01   1.00000000e-01 
  1.00000000e-01   8.00000000e-01   2.00000000e-01 
  1.00000000e-01   8.00000000e-01   3.00000000e-01 
  1.00000000e-01   8.00000000e-01   4.00000000e-01 
  1.00000000e-01   8.00000000e-01   5.00000000e-01 
  1.00000000e-01   8.00000000e-01   6.00000000e-01 
  1.00000000e-01   8.00000000e-01   7.00000000e-01 
  1.00000000e-01   8.00000000e-01   8.00000000e-01 
[...]
POINT_DATA   1000
FIELD solution 1
u 3   1000 DOUBLE
   -1.17053490e-04    -2.13035621e-05    -1.27085825e-05 
   -1.05498233e-04    -1.50750217e-05    -2.47600275e-05 
   -9.95373356e-05    -1.29321332e-05    -2.26412645e-05 
   -9.86987372e-05    -9.93174093e-06    -8.60650194e-06 
   -1.00136552e-04    -7.77833287e-06    -4.55183149e-06 
   -1.00137358e-04    -7.77730223e-06     4.53945497e-06 
   -9.87010976e-05    -9.93356582e-06     8.59070528e-06 
   -9.95427176e-05    -1.29336062e-05     2.26274319e-05 
   -1.05507507e-04    -1.50777379e-05     2.47419753e-05 
   -1.16977842e-04    -2.13463337e-05     1.27082906e-05 
   -1.04091884e-04    -3.16263731e-05    -1.23860296e-05 
   -8.77425018e-05    -2.61659533e-05    -2.56111280e-05 
   -8.33729586e-05    -2.61607526e-05    -2.24805630e-05 
   -8.19183405e-05    -2.29550603e-05    -1.09428479e-05 
   -8.31176017e-05    -2.21309596e-05    -3.95905312e-06 
   -8.31182790e-05    -2.21328526e-05     3.94764951e-06 
   -8.19208773e-05    -2.29539425e-05     1.09303453e-05 
   -8.33782157e-05    -2.61649438e-05     2.24695102e-05 
   -8.77419794e-05    -2.61583921e-05     2.55898903e-05 
   -1.04101243e-04    -3.16288841e-05     1.23758680e-05 
   -1.00300096e-04    -2.01296010e-05    -1.14856657e-05 
   -8.35913452e-05    -2.20462512e-05    -2.44593116e-05 
   -7.84308338e-05    -2.05010629e-05    -2.10217963e-05 
   -7.68169664e-05    -1.85019503e-05    -1.02260965e-05 
   -7.76972109e-05    -1.76301380e-05    -3.92726286e-06 
   -7.76979146e-05    -1.76300040e-05     3.91558187e-06 
   -7.68187706e-05    -1.85040105e-05     1.02118608e-05 
   -7.84306687e-05    -2.04901902e-05     2.09958178e-05 
   -8.35983866e-05    -2.20495060e-05     2.44454595e-05 
   -1.00307871e-04    -2.01283862e-05     1.14725533e-05 
   -9.93237475e-05    -1.13043216e-05    -8.98168358e-06 
   -8.20932131e-05    -1.14297634e-05    -2.30931905e-05 
   -7.69425230e-05    -1.09416224e-05    -1.86049172e-05 
   -7.32925198e-05    -9.36854737e-06    -9.35543033e-06 
   -7.47810908e-05    -8.81278687e-06    -2.75393232e-06 
   -7.47816785e-05    -8.81431663e-06     2.74283453e-06 
   -7.32921562e-05    -9.34376521e-06     9.31926219e-06 
   -7.69458072e-05    -1.09410269e-05     1.85912706e-05 
   -8.20984999e-05    -1.14286674e-05     2.30781703e-05 
   -9.93289057e-05    -1.13019383e-05     8.96837453e-06 
   -1.01317038e-04    -2.32106176e-06    -6.98135145e-06 
   -8.34752471e-05    -3.49547898e-06    -2.17361833e-05 
   -7.79096706e-05    -2.96748523e-06    -1.77810830e-05 
   -7.48924660e-05    -2.65812108e-06    -8.36421431e-06 
   -7.49265770e-05    -2.45926000e-06    -2.53820687e-06 
   -7.49263609e-05    -2.43445854e-06     2.50359903e-06 
   -7.48939848e-05    -2.65698493e-06     8.35358271e-06 
   -7.79128589e-05    -2.96637947e-06     1.77662106e-05 
   -8.34801076e-05    -3.49310671e-06     2.17205300e-05 
   -1.01322113e-04    -2.31836279e-06     6.96723795e-06 
   -1.01317038e-04     2.32106176e-06    -6.98135145e-06 
   -8.34752471e-05     3.49547898e-06    -2.17361833e-05 
   -7.79096706e-05     2.96748523e-06    -1.77810830e-05 
   -7.48924660e-05     2.65812108e-06    -8.36421431e-06 
   -7.49265770e-05     2.45926000e-06    -2.53820687e-06 
   -7.49263609e-05     2.43445854e-06     2.50359903e-06 
   -7.48939848e-05     2.65698493e-06     8.35358271e-06 
   -7.79128589e-05     2.96637947e-06     1.77662106e-05 
   -8.34801076e-05     3.49310671e-06     2.17205300e-05 
   -1.01322113e-04     2.31836279e-06     6.96723795e-06 
   -9.93237475e-05     1.13043216e-05    -8.98168358e-06 
   -8.20932131e-05     1.14297634e-05    -2.30931905e-05 
   -7.69425230e-05     1.09416224e-05    -1.86049172e-05 
   -7.32925198e-05     9.36854737e-06    -9.35543033e-06 
   -7.47810908e-05     8.81278687e-06    -2.75393232e-06 
   -7.47816785e-05     8.81431663e-06     2.74283453e-06 
   -7.32921562e-05     9.34376521e-06     9.31926219e-06 
   -7.69458072e-05     1.09410269e-05     1.85912706e-05 
   -8.20984999e-05     1.14286674e-05     2.30781703e-05 
   -9.93289057e-05     1.13019383e-05     8.96837453e-06 
   -1.00300096e-04     2.01296010e-05    -1.14856657e-05 
   -8.35913452e-05     2.20462512e-05    -2.44593116e-05 
   -7.84308338e-05     2.05010629e-05    -2.10217963e-05 
   -7.68169664e-05     1.85019503e-05    -1.02260965e-05 
   -7.76972109e-05     1.76301380e-05    -3.92726286e-06 
   -7.76979146e-05     1.76300040e-05     3.91558187e-06 
   -7.68187706e-05     1.85040105e-05     1.02118608e-05 
   -7.84306687e-05     2.04901902e-05     2.09958178e-05 
   -8.35983866e-05     2.20495060e-05     2.44454595e-05 
   -1.00307871e-04     2.01283862e-05     1.14725533e-05 
   -1.04091884e-04     3.16263731e-05    -1.23860296e-05 
   -8.77425018e-05     2.61659533e-05    -2.56111280e-05 
   -8.33729586e-05     2.61607526e-05    -2.24805630e-05 
   -8.19183405e-05     2.29550603e-05    -1.09428479e-05 
   -8.31176017e-05     2.21309596e-05    -3.95905312e-06 
   -8.31182790e-05     2.21328526e-05     3.94764951e-06 
   -8.19208773e-05     2.29539425e-05     1.09303453e-05 
   -8.33782157e-05     2.61649438e-05     2.24695102e-05 
   -8.77419794e-05     2.61583921e-05     2.55898903e-05 
   -1.04101243e-04     3.16288841e-05     1.23758680e-05 
   -1.17053490e-04     2.13035621e-05    -1.27085825e-05 
   -1.05498233e-04     1.50750217e-05    -2.47600275e-05 
   -9.95373356e-05     1.29321332e-05    -2.26412645e-05 
   -9.86987372e-05     9.93174093e-06    -8.60650194e-06 
   -1.00136552e-04     7.77833287e-06    -4.55183149e-06 
   -1.00137358e-04     7.77730223e-06     4.53945497e-06 
   -9.87010976e-05     9.93356582e-06     8.59070528e-06 
   -9.95427176e-05     1.29336062e-05     2.26274319e-05 
   -1.05507507e-04     1.50777379e-05     2.47419753e-05 
   -1.16977842e-04     2.13463337e-05     1.27082906e-05 
   -7.24930231e-05    -3.59046316e-05    -2.60700543e-05 
   -6.20070361e-05    -2.95306323e-05    -3.66245163e-05 
   -6.12111464e-05    -2.83480098e-05    -2.90396814e-05 
   -5.78126994e-05    -2.64460876e-05    -1.53964069e-05 
   -5.82995182e-05    -2.50168442e-05    -4.69973680e-06 
   -5.83020668e-05    -2.50164163e-05     4.70026927e-06 
   -5.78126075e-05    -2.64459662e-05     1.53955699e-05 
   -6.12182092e-05    -2.83479936e-05     2.90382265e-05 
   -6.20088832e-05    -2.95332586e-05     3.66221019e-05 
   -7.24709000e-05    -3.59042778e-05     2.60690146e-05 
   -6.53463951e-05    -3.98830176e-05    -2.78341436e-05 
   -5.84551492e-05    -3.28835845e-05    -3.46410157e-05 
   -5.61368612e-05    -3.32228833e-05    -2.75540235e-05 
   -5.27348041e-05    -3.04330895e-05    -1.65219904e-05 
   -5.23245403e-05    -2.98930928e-05    -4.36935170e-06 
   -5.23266335e-05    -2.98955511e-05     4.36913989e-06 
   -5.27347261e-05    -3.04314171e-05     1.65219448e-05 
   -5.61391377e-05    -3.32277477e-05     2.75500708e-05 
   -5.84645871e-05    -3.28927255e-05     3.46486011e-05 
   -6.53564208e-05    -3.98884907e-05     2.78317665e-05 
   -6.00741984e-05    -2.73028612e-05    -2.74147323e-05 
   -5.51236412e-05    -2.82903107e-05    -3.13453537e-05 
   -5.17268910e-05    -2.69478778e-05    -2.76596142e-05 
   -4.90680764e-05    -2.63803141e-05    -1.55213326e-05 
   -4.79994799e-05    -2.54847365e-05    -5.00095758e-06 
   -4.80006744e-05    -2.54843346e-05     4.99964521e-06 
   -4.90664378e-05    -2.63824414e-05     1.55164453e-05 
   -5.17355313e-05    -2.69501743e-05     2.76554305e-05 
   -5.51241270e-05    -2.82941937e-05     3.13389334e-05 
   -6.00812851e-05    -2.73033302e-05     2.74069914e-05 
   -5.92172302e-05    -1.67701591e-05    -2.58619476e-05 
   -5.35664242e-05    -1.59068631e-05    -3.09825550e-05 
   -4.91957818e-05    -1.59592219e-05    -2.62812672e-05 
   -4.60192924e-05    -1.46946138e-05    -1.50138776e-05 
   -4.48656152e-05    -1.42657649e-05    -4.15875106e-06 
   -4.48651787e-05    -1.42667473e-05     4.15587540e-06 
   -4.60221205e-05    -1.46913271e-05     1.50075651e-05 
   -4.91960036e-05    -1.59600264e-05     2.62750960e-05 
   -5.35703558e-05    -1.59082899e-05     3.09759523e-05 
   -5.92236486e-05    -1.67723122e-05     2.58535704e-05 
   -5.85423559e-05    -3.66098755e-06    -2.45884554e-05 
   -5.24603709e-05    -4.87368418e-06    -2.94761150e-05 
   -4.79319888e-05    -4.18610413e-06    -2.57620193e-05 
   -4.51625275e-05    -4.34169987e-06    -1.39347161e-05 
   -4.36313795e-05    -3.95883763e-06    -4.00069273e-06 
   -4.36326250e-05    -3.95400663e-06     3.99374307e-06 
   -4.51618755e-05    -4.34098334e-06     1.39311397e-05 
   -4.79337762e-05    -4.18520765e-06     2.57548022e-05 
   -5.24628322e-05    -4.87366512e-06     2.94679691e-05 
   -5.85469529e-05    -3.65857452e-06     2.45800218e-05 
   -5.85423559e-05     3.66098755e-06    -2.45884554e-05 
   -5.24603709e-05     4.87368418e-06    -2.94761150e-05 
   -4.79319888e-05     4.18610413e-06    -2.57620193e-05 
   -4.51625275e-05     4.34169987e-06    -1.39347161e-05 
   -4.36313795e-05     3.95883763e-06    -4.00069273e-06 
   -4.36326250e-05     3.95400663e-06     3.99374307e-06 
   -4.51618755e-05     4.34098334e-06     1.39311397e-05 
   -4.79337762e-05     4.18520765e-06     2.57548022e-05 
   -5.24628322e-05     4.87366512e-06     2.94679691e-05 
   -5.85469529e-05     3.65857452e-06     2.45800218e-05 
   -5.92172302e-05     1.67701591e-05    -2.58619476e-05 
   -5.35664242e-05     1.59068631e-05    -3.09825550e-05 
   -4.91957818e-05     1.59592219e-05    -2.62812672e-05 
   -4.60192924e-05     1.46946138e-05    -1.50138776e-05 
   -4.48656152e-05     1.42657649e-05    -4.15875106e-06 
   -4.48651787e-05     1.42667473e-05     4.15587540e-06 
   -4.60221205e-05     1.46913271e-05     1.50075651e-05 
   -4.91960036e-05     1.59600264e-05     2.62750960e-05 
   -5.35703558e-05     1.59082899e-05     3.09759523e-05 
   -5.92236486e-05     1.67723122e-05     2.58535704e-05 
   -6.00741984e-05     2.73028612e-05    -2.74147323e-05 
   -5.51236412e-05     2.82903107e-05    -3.13453537e-05 
   -5.17268910e-05     2.69478778e-05    -2.76596142e-05 
   -4.90680764e-05     2.63803141e-05    -1.55213326e-05 
   -4.79994799e-05     2.54847365e-05    -5.00095758e-06 
   -4.80006744e-05     2.54843346e-05     4.99964521e-06 
   -4.90664378e-05     2.63824414e-05     1.55164453e-05 
   -5.17355313e-05     2.69501743e-05     2.76554305e-05 
   -5.51241270e-05     2.82941937e-05     3.13389334e-05 
   -6.00812851e-05     2.73033302e-05     2.74069914e-05 
   -6.53463951e-05     3.98830176e-05    -2.78341436e-05 
   -5.84551492e-05     3.28835845e-05    -3.46410157e-05 
   -5.61368612e-05     3.32228833e-05    -2.75540235e-05 
   -5.27348041e-05     3.04330895e-05    -1.65219904e-05 
   -5.23245403e-05     2.98930928e-05    -4.36935170e-06 
   -5.23266335e-05     2.98955511e-05     4.36913989e-06 
   -5.27347261e-05     3.04314171e-05     1.65219448e-05 
   -5.61391377e-05     3.32277477e-05     2.75500708e-05 
   -5.84645871e-05     3.28927255e-05     3.46486011e-05 
   -6.53564208e-05     3.98884907e-05     2.78317665e-05 
   -7.24930231e-05     3.59046316e-05    -2.60700543e-05 
   -6.20070361e-05     2.95306323e-05    -3.66245163e-05 
   -6.12111464e-05     2.83480098e-05    -2.90396814e-05 
   -5.78126994e-05     2.64460876e-05    -1.53964069e-05 
   -5.82995182e-05     2.50168442e-05    -4.69973680e-06 
   -5.83020668e-05     2.50164163e-05     4.70026927e-06 
   -5.78126075e-05     2.64459662e-05     1.53955699e-05 
   -6.12182092e-05     2.83479936e-05     2.90382265e-05 
   -6.20088832e-05     2.95332586e-05     3.66221019e-05 
   -7.24709000e-05     3.59042778e-05     2.60690146e-05 
   -3.89108743e-05    -4.86944709e-05    -3.83796301e-05 
   -3.85824351e-05    -4.10886032e-05    -4.37533068e-05 
   -3.31508642e-05    -3.78495042e-05    -3.57721975e-05 
   -2.87155419e-05    -3.64951561e-05    -2.07045460e-05 
   -2.64863494e-05    -3.56919800e-05    -7.52021270e-06 
   -2.64871617e-05    -3.56920368e-05     7.51829331e-06 
   -2.87169719e-05    -3.64955516e-05     2.07009380e-05 
   -3.31525653e-05    -3.78524053e-05     3.57672309e-05 
   -3.85854035e-05    -4.10904205e-05     4.37442064e-05 
   -3.88811280e-05    -4.86952870e-05     3.83753761e-05 
   -3.70028302e-05    -4.54828042e-05    -3.98823088e-05 
   -3.65221550e-05    -4.11879562e-05    -4.01457117e-05 
   -3.17433243e-05    -3.97322826e-05    -3.49291475e-05 
   -2.74907677e-05    -3.83579826e-05    -2.10233042e-05 
   -2.50372723e-05    -3.76650923e-05    -7.79518183e-06 
   -2.50370074e-05    -3.76662798e-05     7.79524350e-06 
   -2.74896455e-05    -3.83578210e-05     2.10199068e-05 
   -3.17459891e-05    -3.97346095e-05     3.49289603e-05 
   -3.65370185e-05    -4.11912959e-05     4.01439980e-05 
   -3.70046731e-05    -4.54774764e-05     3.98781273e-05 
   -3.35854585e-05    -3.49827380e-05    -3.70412680e-05 
   -3.25243234e-05    -3.48100182e-05    -3.90801241e-05 
   -2.76580856e-05    -3.27708346e-05    -3.31578547e-05 
   -2.23597836e-05    -3.21802959e-05    -2.06923879e-05 
   -1.97781145e-05    -3.12848441e-05    -7.68418079e-06 
   -1.97767975e-05    -3.12846008e-05     7.68157897e-06 
   -2.23603809e-05    -3.21812164e-05     2.06901922e-05 
   -2.76683644e-05    -3.27742882e-05     3.31554046e-05 
   -3.25298413e-05    -3.48153495e-05     3.90748621e-05 
   -3.35906644e-05    -3.49826275e-05     3.70371213e-05 
   -2.87354676e-05    -2.15170083e-05    -3.60751657e-05 
   -2.73345165e-05    -2.13353961e-05    -3.83537111e-05 
   -2.22461851e-05    -2.08042554e-05    -3.21752846e-05 
   -1.65336874e-05    -1.97214164e-05    -1.99710016e-05 
   -1.43008495e-05    -1.95993074e-05    -6.86580573e-06 
   -1.43013579e-05    -1.96008478e-05     6.86307815e-06 
   -1.65364262e-05    -1.97182180e-05     1.99640835e-05 
   -2.22469838e-05    -2.08066728e-05     3.21690865e-05 
   -2.73347516e-05    -2.13343955e-05     3.83479892e-05 
   -2.87401715e-05    -2.15171020e-05     3.60680913e-05 
   -2.66825904e-05    -6.53111483e-06    -3.53850946e-05 
   -2.51128949e-05    -7.36204915e-06    -3.75546719e-05 
   -1.99108547e-05    -6.98758244e-06    -3.15216094e-05 
   -1.43747698e-05    -6.86336189e-06    -1.94742005e-05 
   -1.20435295e-05    -6.45267012e-06    -6.48628307e-06 
   -1.20439812e-05    -6.44797859e-06     6.48005585e-06 
   -1.43747454e-05    -6.86498420e-06     1.94701068e-05 
   -1.99099718e-05    -6.98602933e-06     3.15146014e-05 
   -2.51149060e-05    -7.36192405e-06     3.75473659e-05 
   -2.66867364e-05    -6.53005101e-06     3.53777832e-05 
   -2.66825904e-05     6.53111483e-06    -3.53850946e-05 
   -2.51128949e-05     7.36204915e-06    -3.75546719e-05 
   -1.99108547e-05     6.98758244e-06    -3.15216094e-05 
   -1.43747698e-05     6.86336189e-06    -1.94742005e-05 
   -1.20435295e-05     6.45267012e-06    -6.48628307e-06 
   -1.20439812e-05     6.44797859e-06     6.48005585e-06 
   -1.43747454e-05     6.86498420e-06     1.94701068e-05 
   -1.99099718e-05     6.98602933e-06     3.15146014e-05 
   -2.51149060e-05     7.36192405e-06     3.75473659e-05 
   -2.66867364e-05     6.53005101e-06     3.53777832e-05 
   -2.87354676e-05     2.15170083e-05    -3.60751657e-05 
   -2.73345165e-05     2.13353961e-05    -3.83537111e-05 
   -2.22461851e-05     2.08042554e-05    -3.21752846e-05 
   -1.65336874e-05     1.97214164e-05    -1.99710016e-05 
   -1.43008495e-05     1.95993074e-05    -6.86580573e-06 
   -1.43013579e-05     1.96008478e-05     6.86307815e-06 
   -1.65364262e-05     1.97182180e-05     1.99640835e-05 
   -2.22469838e-05     2.08066728e-05     3.21690865e-05 
   -2.73347516e-05     2.13343955e-05     3.83479892e-05 
   -2.87401715e-05     2.15171020e-05     3.60680913e-05 
   -3.35854585e-05     3.49827380e-05    -3.70412680e-05 
   -3.25243234e-05     3.48100182e-05    -3.90801241e-05 
   -2.76580856e-05     3.27708346e-05    -3.31578547e-05 
   -2.23597836e-05     3.21802959e-05    -2.06923879e-05 
   -1.97781145e-05     3.12848441e-05    -7.68418079e-06 
   -1.97767975e-05     3.12846008e-05     7.68157897e-06 
   -2.23603809e-05     3.21812164e-05     2.06901922e-05 
   -2.76683644e-05     3.27742882e-05     3.31554046e-05 
   -3.25298413e-05     3.48153495e-05     3.90748621e-05 
   -3.35906644e-05     3.49826275e-05     3.70371213e-05 
   -3.70028302e-05     4.54828042e-05    -3.98823088e-05 
   -3.65221550e-05     4.11879562e-05    -4.01457117e-05 
   -3.17433243e-05     3.97322826e-05    -3.49291475e-05 
   -2.74907677e-05     3.83579826e-05    -2.10233042e-05 
   -2.50372723e-05     3.76650923e-05    -7.79518183e-06 
   -2.50370074e-05     3.76662798e-05     7.79524350e-06 
   -2.74896455e-05     3.83578210e-05     2.10199068e-05 
   -3.17459891e-05     3.97346095e-05     3.49289603e-05 
   -3.65370185e-05     4.11912959e-05     4.01439980e-05 
   -3.70046731e-05     4.54774764e-05     3.98781273e-05 
   -3.89108743e-05     4.86944709e-05    -3.83796301e-05 
   -3.85824351e-05     4.10886032e-05    -4.37533068e-05 
   -3.31508642e-05     3.78495042e-05    -3.57721975e-05 
   -2.87155419e-05     3.64951561e-05    -2.07045460e-05 
   -2.64863494e-05     3.56919800e-05    -7.52021270e-06 
   -2.64871617e-05     3.56920368e-05     7.51829331e-06 
   -2.87169719e-05     3.64955516e-05     2.07009380e-05 
   -3.31525653e-05     3.78524053e-05     3.57672309e-05 
   -3.85854035e-05     4.10904205e-05     4.37442064e-05 
   -3.88811280e-05     4.86952870e-05     3.83753761e-05 
   -2.53152486e-05    -5.29167437e-05    -4.27956552e-05 
   -2.22917855e-05    -4.53599042e-05    -4.98801739e-05 
   -1.88714264e-05    -4.23694108e-05    -4.23695658e-05 
   -1.40753738e-05    -3.93119754e-05    -2.75258644e-05 
   -1.08180635e-05    -3.81860945e-05    -8.06508846e-06 
   -1.08193411e-05    -3.81864380e-05     8.06186519e-06 
   -1.40739678e-05    -3.93132232e-05     2.75214240e-05 
   -1.88719994e-05    -4.23710401e-05     4.23616005e-05 
   -2.22920578e-05    -4.53606082e-05     4.98734307e-05 
   -2.52953361e-05    -5.29144479e-05     4.27880434e-05 
   -2.37377429e-05    -5.16849349e-05    -4.44090892e-05 
   -2.14547945e-05    -4.66183893e-05    -4.63239641e-05 
   -1.76154396e-05    -4.52619602e-05    -4.10799535e-05 
   -1.28109864e-05    -4.35589804e-05    -2.75617806e-05 
   -1.00199535e-05    -4.22912410e-05    -8.23001476e-06 
   -1.00194799e-05    -4.22919539e-05     8.22791332e-06 
   -1.28118627e-05    -4.35597995e-05     2.75617731e-05 
   -1.76180393e-05    -4.52639633e-05     4.10766667e-05 
   -2.14657045e-05    -4.66206604e-05     4.63227534e-05 
   -2.37408683e-05    -5.16838133e-05     4.44048420e-05 
   -1.87152029e-05    -4.21163368e-05    -4.17744045e-05 
   -1.71295406e-05    -4.10429604e-05    -4.51622356e-05 
   -1.22736163e-05    -3.96516052e-05    -3.96107208e-05 
   -7.48457223e-06    -3.87946658e-05    -2.70046065e-05 
   -4.41906044e-06    -3.81341320e-05    -8.18311489e-06 
   -4.41989143e-06    -3.81346937e-05     8.18119630e-06 
   -7.48469894e-06    -3.87952357e-05     2.70029458e-05 
   -1.22809561e-05    -3.96521667e-05     3.96059642e-05 
   -1.71312743e-05    -4.10446302e-05     4.51586172e-05 
   -1.87164106e-05    -4.21130634e-05     4.17701691e-05 
   -1.47256362e-05    -2.78356942e-05    -3.88860425e-05 
   -1.26858406e-05    -2.72173869e-05    -4.32596253e-05 
   -7.66315210e-06    -2.68359474e-05    -3.89122156e-05 
   -2.79710582e-06    -2.53065750e-05    -2.54425612e-05 
    2.65893422e-07    -2.51553705e-05    -7.55769075e-06 
    2.65615346e-07    -2.51555557e-05     7.55557482e-06 
   -2.80083278e-06    -2.53070418e-05     2.54383788e-05 
   -7.66440710e-06    -2.68382936e-05     3.89066494e-05 
   -1.26875598e-05    -2.72189011e-05     4.32553854e-05 
   -1.47277154e-05    -2.78355294e-05     3.88814875e-05 
   -1.04098098e-05    -7.48388012e-06    -3.79353573e-05 
   -9.79523318e-06    -8.25888653e-06    -4.20976575e-05 
   -4.13462306e-06    -7.98398276e-06    -3.83482257e-05 