# vtk DataFile Version 2.0 
generated by Lattice Boltzmann Method time =   1.90525589e+00
ASCII 
DATASET UNSTRUCTURED_GRID

POINTS   1000 FLOAT 
  0.00000000e+00   0.00000000e+00   0.00000000e+00 
  0.00000000e+00   0.00000000e+00   1.00000000e-01 
  0.00000000e+00   0.00000000e+00   2.00000000e-01 
  0.00000000e+00   0.00000000e+00   3.00000000e-01 
  0.00000000e+00   0.00000000e+00   4.00000000e-01 
  0.00000000e+00   0.00000000e+00   5.00000000e-01 
  0.00000000e+00   0.00000000e+00   6.00000000e-01 
  0.00000000e+00   0.00000000e+00   7.00000000e-01 
  0.00000000e+00   0.00000000e+00   8.00000000e-01 
  0.00000000e+00   0.00000000e+00   9.00000000e-01 
  0.00000000e+00   1.00000000e-01   0.00000000e+00 
  0.00000000e+00   1.00000000e-01   1.00000000e-01 
  0.00000000e+00   1.00000000e-01   2.00000000e-01 
  0.00000000e+00   1.00000000e-01   3.00000000e-01 
  0.00000000e+00   1.00000000e-01   4.00000000e-01 
  0.00000000e+00   1.00000000e-01   5.00000000e-01 
  0.00000000e+00   1.00000000e-01   6.00000000e-01 
  0.00000000e+00   1.00000000e-01   7.00000000e-01 
  0.00000000e+00   1.00000000e-01   8.00000000e-01 
  0.00000000e+00   1.00000000e-01   9.00000000e-01 
  0.00000000e+00   2.00000000e-01   0.00000000e+00 
  0.00000000e+00   2.00000000e-01   1.00000000e-01 
  0.00000000e+00   2.00000000e-01   2.00000000e-01 
  0.00000000e+00   2.00000000e-01   3.00000000e-01 
  0.00000000e+00   2.00000000e-01   4.00000000e-01 
  0.00000000e+00   2.00000000e-01   5.00000000e-01 
  0.00000000e+00   2.00000000e-01   6.00000000e-01 
  0.00000000e+00   2.00000000e-01   7.00000000e-01 
  0.00000000e+00   2.00000000e-01   8.00000000e-01 
  0.00000000e+00   2.00000000e-01   9.00000000e-01 
  0.00000000e+00   3.00000000e-01   0.00000000e+00 
  0.00000000e+00   3.00000000e-01   1.00000000e-01 
  0.00000000e+00   3.00000000e-01   2.00000000e-01 
  0.00000000e+00   3.00000000e-01   3.00000000e-01 
  0.00000000e+00   3.00000000e-01   4.00000000e-01 
  0.00000000e+00   3.00000000e-01   5.00000000e-01 
  0.00000000e+00   3.00000000e-01   6.00000000e-01 
  0.00000000e+00   3.00000000e-01   7.00000000e-01 
  0.00000000e+00   3.00000000e-01   8.00000000e-01 
  0.00000000e+00   3.00000000e-01   9.00000000e-01 
  0.00000000e+00   4.00000000e-01   0.00000000e+00 
  0.00000000e+00   4.00000000e-01   1.00000000e-01 
  0.00000000e+00   4.00000000e-01   2.00000000e-01 
  0.00000000e+00   4.00000000e-01   3.00000000e-01 
  0.00000000e+00   4.00000000e-01   4.00000000e-01 
  0.00000000e+00   4.00000000e-01   5.00000000e-01 
  0.00000000e+00   4.00000000e-01   6.00000000e-01 
  0.00000000e+00   4.00000000e-01   7.00000000e-01 
  0.00000000e+00   4.00000000e-01   8.00000000e-01 
  0.00000000e+00   4.00000000e-01   9.00000000e-01 
  0.00000000e+00   5.00000000e-01   0.00000000e+00 
  0.00000000e+00   5.00000000e-01   1.00000000e-01 
  0.00000000e+00   5.00000000e-01   2.00000000e-01 
  0.00000000e+00   5.00000000e-01   3.00000000e-01 
  0.00000000e+00   5.00000000e-01   4.00000000e-01 
  0.00000000e+00   5.00000000e-01   5.00000000e-01 
  0.00000000e+00   5.00000000e-01   6.00000000e-01 
  0.00000000e+00   5.00000000e-01   7.00000000e-01 
  0.00000000e+00   5.00000000e-01   8.00000000e-01 
  0.00000000e+00   5.00000000e-01   9.00000000e-01 
  0.00000000e+00   6.00000000e-01   0.00000000e+00 
  0.00000000e+00   6.00000000e-01   1.00000000e-01 
  0.00000000e+00   6.00000000e-01   2.00000000e-01 
  0.00000000e+00   6.00000000e-01   3.00000000e-01 
  0.00000000e+00   6.00000000e-01   4.00000000e-01 
  0.00000000e+00   6.00000000e-01   5.00000000e-01 
  0.00000000e+00   6.00000000e-01   6.00000000e-01 
  0.00000000e+00   6.00000000e-01   7.00000000e-01 
  0.00000000e+00   6.00000000e-01   8.00000000e-01 
  0.00000000e+00   6.00000000e-01   9.00000000e-01 
  0.00000000e+00   7.00000000e-01   0.00000000e+00 
  0.00000000e+00   7.00000000e-01   1.00000000e-01 
  0.00000000e+00   7.00000000e-01   2.00000000e-01 
  0.00000000e+00   7.00000000e-01   3.00000000e-01 
  0.00000000e+00   7.00000000e-01   4.00000000e-01 
  0.00000000e+00   7.00000000e-01   5.00000000e-01 
  0.00000000e+00   7.00000000e-01   6.00000000e-01 
  0.00000000e+00   7.00000000e-01   7.00000000e-01 
  0.00000000e+00   7.00000000e-01   8.00000000e-01 
  0.00000000e+00   7.00000000e-01   9.00000000e-01 
  0.00000000e+00   8.00000000e-01   0.00000000e+00 
  0.00000000e+00   8.00000000e-01   1.00000000e-01 
  0.00000000e+00   8.00000000e-01   2.00000000e-01 
  0.00000000e+00   8.00000000e-01   3.00000000e-01 
  0.00000000e+00   8.00000000e-01   4.00000000e-01 
  0.00000000e+00   8.00000000e-01   5.00000000e-01 
  0.00000000e+00   8.00000000e-01   6.00000000e-01 
  0.00000000e+00   8.00000000e-01   7.00000000e-01 
  0.00000000e+00   8.00000000e-01   8.00000000e-01 
  0.00000000e+00   8.00000000e-01   9.00000000e-01 
  0.00000000e+00   9.00000000e-01   0.00000000e+00 
  0.00000000e+00   9.00000000e-01   1.00000000e-01 
  0.00000000e+00   9.00000000e-01   2.00000000e-01 
  0.00000000e+00   9.00000000e-01   3.00000000e-01 
  0.00000000e+00   9.00000000e-01   4.00000000e-01 
  0.00000000e+00   9.00000000e-01   5.00000000e-01 
  0.00000000e+00   9.00000000e-01   6.00000000e-01 
  0.00000000e+00   9.00000000e-01   7.00000000e-01 
  0.00000000e+00   9.00000000e-01   8.00000000e-01 
  0.00000000e+00   9.00000000e-01   9.00000000e-01 
  1.00000000e-01   0.00000000e+00   0.00000000e+00 
  1.00000000e-01   0.00000000e+00   1.00000000e-01 
  1.00000000e-01   0.00000000e+00   2.00000000e-01 
  1.00000000e-01   0.00000000e+00   3.00000000e-01 
  1.00000000e-01   0.00000000e+00   4.00000000e-01 
  1.00000000e-01   0.00000000e+00   5.00000000e-01 
  1.00000000e-01   0.00000000e+00   6.00000000e-01 
  1.00000000e-01   0.00000000e+00   7.00000000e-01 
  1.00000000e-01   0.00000000e+00   8.00000000e-01 
  1.00000000e-01   0.00000000e+00   9.00000000e-01 
  1.00000000e-01   1.00000000e-01   0.00000000e+00 
  1.00000000e-01   1.00000000e-01   1.00000000e-01 
  1.00000000e-01   1.00000000e-01   2.00000000e-01 
  1.00000000e-01   1.00000000e-01   3.00000000e-01 
  1.00000000e-01   1.00000000e-01   4.00000000e-01 
  1.00000000e-01   1.00000000e-01   5.00000000e-01 
  1.00000000e-01   1.00000000e-01   6.00000000e-01 
  1.00000000e-01   1.00000000e-01   7.00000000e-01 
  1.00000000e-01   1.00000000e-01   8.00000000e-01 
  1.00000000e-01   1.00000000e-01   9.00000000e-01 
  1.00000000e-01   2.00000000e-01   0.00000000e+00 
  1.00000000e-01   2.00000000e-01   1.00000000e-01 
  1.00000000e-01   2.00000000e-01   2.00000000e-01 
  1.00000000e-01   2.00000000e-01   3.00000000e-01 
  1.00000000e-01   2.00000000e-01   4.00000000e-01 
  1.00000000e-01   2.00000000e-01   5.00000000e-01 
  1.00000000e-01   2.00000000e-01   6.00000000e-01 
  1.00000000e-01   2.00000000e-01   7.00000000e-01 
  1.00000000e-01   2.00000000e-01   8.00000000e-01 
  1.00000000e-01   2.00000000e-01   9.00000000e-01 
  1.00000000e-01   3.00000000e-01   0.00000000e+00 
  1.00000000e-01   3.00000000e-01   1.00000000e-01 
  1.00000000e-01   3.00000000e-01   2.00000000e-01 
  1.00000000e-01   3.00000000e-01   3.00000000e-01 
  1.00000000e-01   3.00000000e-01   4.00000000e-01 
  1.00000000e-01   3.00000000e-01   5.00000000e-01 
  1.00000000e-01   3.00000000e-01   6.00000000e-01 
  1.00000000e-01   3.00000000e-01   7.00000000e-01 
  1.00000000e-01   3.00000000e-01   8.00000000e-01 
  1.00000000e-01   3.00000000e-01   9.00000000e-01 
  1.00000000e-01   4.00000000e-01   0.00000000e+00 
  1.00000000e-01   4.00000000e-01   1.00000000e-01 
  1.00000000e-01   4.00000000e-01   2.00000000e-01 
  1.00000000e-01   4.00000000e-01   3.00000000e-01 
  1.00000000e-01   4.00000000e-01   4.00000000e-01 
  1.00000000e-01   4.00000000e-01   5.00000000e-01 
  1.00000000e-01   4.00000000e-01   6.00000000e-01 
  1.00000000e-01   4.00000000e-01   7.00000000e-01 
  1.00000000e-01   4.00000000e-01   8.00000000e-01 
  1.00000000e-01   4.00000000e-01   9.00000000e-01 
  1.00000000e-01   5.00000000e-01   0.00000000e+00 
  1.00000000e-01   5.00000000e-01   1.00000000e-01 
  1.00000000e-01   5.00000000e-01   2.00000000e-01 
  1.00000000e-01   5.00000000e-01   3.00000000e-01 
  1.00000000e-01   5.00000000e-01   4.00000000e-01 
  1.00000000e-01   5.00000000e-01   5.00000000e-01 
  1.00000000e-01   5.00000000e-01   6.00000000e-01 
  1.00000000e-01   5.00000000e-01   7.00000000e-01 
  1.00000000e-01   5.00000000e-01   8.00000000e-01 
  1.00000000e-01   5.00000000e-01   9.00000000e-01 
  1.00000000e-01   6.00000000e-01   0.00000000e+00 
  1.00000000e-01   6.00000000e-01   1.00000000e-01 
  1.00000000e-01   6.00000000e-01   2.00000000e-01 
  1.00000000e-01   6.00000000e-01   3.00000000e-01 
  1.00000000e-01   6.00000000e-01   4.00000000e-01 
  1.00000000e-01   6.00000000e-01   5.00000000e-01 
  1.00000000e-01   6.00000000e-01   6.00000000e-01 
  1.00000000e-01   6.00000000e-01   7.00000000e-01 
  1.00000000e-01   6.00000000e-01   8.00000000e-01 
  1.00000000e-01   6.00000000e-01   9.00000000e-01 
  1.00000000e-01   7.00000000e-01   0.00000000e+00 
  1.00000000e-01   7.00000000e-01   1.00000000e-01 
  1.00000000e-01   7.00000000e-01   2.00000000e-01 
  1.00000000e-01   7.00000000e-01   3.00000000e-01 
  1.00000000e-01   7.00000000e-01   4.00000000e-01 
  1.00000000e-01   7.00000000e-01   5.00000000e-01 
  1.00000000e-01   7.00000000e-01   6.00000000e-01 
  1.00000000e-01   7.00000000e-01   7.00000000e-01 
  1.00000000e-01   7.00000000e-01   8.00000000e-01 
  1.00000000e-01   7.00000000e-01   9.00000000e-01 
  1.00000000e-01   8.00000000e-01   0.00000000e+00 
  1.00000000e-01   8.00000000e-01   1.00000000e-01 
  1.00000000e-01   8.00000000e-01   2.00000000e-01 
  1.00000000e-01   8.00000000e-01   3.00000000e-01 
  1.00000000e-01   8.00000000e-01   4.00000000e-01 
  1.00000000e-01   8.00000000e-01   5.00000000e-01 
  1.00000000e-01   8.00000000e-01   6.00000000e-01 
  1.00000000e-01   8.00000000e-01   7.00000000e-01 
  1.00000000e-01   8.00000000e-01   8.00000000e-01 
[...]
POINT_DATA   1000
FIELD solution 1
u 3   1000 DOUBLE
   -1.82498024e-04     1.24612696e-04     1.06618960e-04 
   -2.11391278e-04     1.07001913e-04     1.05794660e-04 
   -2.14114691e-04     1.04793735e-04     5.97933408e-05 
   -2.17161063e-04     1.00612538e-04     5.05006278e-05 
   -2.16327673e-04     9.76879727e-05     3.47386690e-06 
   -2.16326492e-04     9.76879070e-05    -3.49620758e-06 
   -2.17165090e-04     1.00610867e-04    -5.05267258e-05 
   -2.14115488e-04     1.04792936e-04    -5.98186131e-05 
   -2.11402946e-04     1.06996308e-04    -1.05833014e-04 
   -1.82416314e-04     1.24590282e-04    -1.06645292e-04 
   -2.01119242e-04     8.91025351e-05     1.05699250e-04 
   -2.07792449e-04     9.39218610e-05     9.07436425e-05 
   -2.16370485e-04     8.49662523e-05     6.66254448e-05 
   -2.19504874e-04     8.67555468e-05     4.35559493e-05 
   -2.19915920e-04     8.16195656e-05     1.04194895e-05 
   -2.19916487e-04     8.16115946e-05    -1.04307539e-05 
   -2.19506967e-04     8.67639980e-05    -4.35706084e-05 
   -2.16374394e-04     8.49594643e-05    -6.66381111e-05 
   -2.07790211e-04     9.39686487e-05    -9.07987364e-05 
   -2.01115872e-04     8.91088292e-05    -1.05715508e-04 
   -2.12109740e-04     7.43627980e-05     1.02111192e-04 
   -2.16327430e-04     7.02349798e-05     8.91262481e-05 
   -2.26251563e-04     7.04196293e-05     6.66191045e-05 
   -2.30237471e-04     6.40728970e-05     4.31322885e-05 
   -2.30960721e-04     6.19464702e-05     9.93824999e-06 
   -2.30961459e-04     6.19454748e-05    -9.95074673e-06 
   -2.30239434e-04     6.40748092e-05    -4.31478814e-05 
   -2.26250891e-04     7.04354562e-05    -6.66449690e-05 
   -2.16332208e-04     7.02394944e-05    -8.91443586e-05 
   -2.12111347e-04     7.43812548e-05    -1.02127538e-04 
   -2.14109626e-04     3.54422473e-05     9.85142489e-05 
   -2.18623145e-04     4.03852836e-05     8.23408414e-05 
   -2.29836978e-04     3.75768513e-05     6.27937994e-05 
   -2.36274484e-04     3.78179723e-05     3.78600303e-05 
   -2.37574549e-04     3.52509713e-05     1.12233698e-05 
   -2.37575142e-04     3.52451215e-05    -1.12369819e-05 
   -2.36273934e-04     3.78309698e-05    -3.78826691e-05 
   -2.29839276e-04     3.75718590e-05    -6.28085341e-05 
   -2.18625935e-04     4.03854455e-05    -8.23530710e-05 
   -2.14110144e-04     3.54336135e-05    -9.85298512e-05 
   -2.14334712e-04     1.78302157e-05     9.54204344e-05 
   -2.18816512e-04     1.44567525e-05     8.17887291e-05 
   -2.30460527e-04     1.54197333e-05     6.11794401e-05 
   -2.37362086e-04     1.23843241e-05     3.59471523e-05 
   -2.39354991e-04     1.28048697e-05     1.08552059e-05 
   -2.39354862e-04     1.28129031e-05    -1.08763581e-05 
   -2.37363291e-04     1.23813388e-05    -3.59601802e-05 
   -2.30462303e-04     1.54219647e-05    -6.11947450e-05 
   -2.18819075e-04     1.44552138e-05    -8.18036541e-05 
   -2.14335688e-04     1.78397873e-05    -9.54355089e-05 
   -2.14334712e-04    -1.78302157e-05     9.54204344e-05 
   -2.18816512e-04    -1.44567525e-05     8.17887291e-05 
   -2.30460527e-04    -1.54197333e-05     6.11794401e-05 
   -2.37362086e-04    -1.23843241e-05     3.59471523e-05 
   -2.39354991e-04    -1.28048697e-05     1.08552059e-05 
   -2.39354862e-04    -1.28129031e-05    -1.08763581e-05 
   -2.37363291e-04    -1.23813388e-05    -3.59601802e-05 
   -2.30462303e-04    -1.54219647e-05    -6.11947450e-05 
   -2.18819075e-04    -1.44552138e-05    -8.18036541e-05 
   -2.14335688e-04    -1.78397873e-05    -9.54355089e-05 
   -2.14109626e-04    -3.54422473e-05     9.85142489e-05 
   -2.18623145e-04    -4.03852836e-05     8.23408414e-05 
   -2.29836978e-04    -3.75768513e-05     6.27937994e-05 
   -2.36274484e-04    -3.78179723e-05     3.78600303e-05 
   -2.37574549e-04    -3.52509713e-05     1.12233698e-05 
   -2.37575142e-04    -3.52451215e-05    -1.12369819e-05 
   -2.36273934e-04    -3.78309698e-05    -3.78826691e-05 
   -2.29839276e-04    -3.75718590e-05    -6.28085341e-05 
   -2.18625935e-04    -4.03854455e-05    -8.23530710e-05 
   -2.14110144e-04    -3.54336135e-05    -9.85298512e-05 
   -2.12109740e-04    -7.43627980e-05     1.02111192e-04 
   -2.16327430e-04    -7.02349798e-05     8.91262481e-05 
   -2.26251563e-04    -7.04196293e-05     6.66191045e-05 
   -2.30237471e-04    -6.40728970e-05     4.31322885e-05 
   -2.30960721e-04    -6.19464702e-05     9.93824999e-06 
   -2.30961459e-04    -6.19454748e-05    -9.95074673e-06 
   -2.30239434e-04    -6.40748092e-05    -4.31478814e-05 
   -2.26250891e-04    -7.04354562e-05    -6.66449690e-05 
   -2.16332208e-04    -7.02394944e-05    -8.91443586e-05 
   -2.12111347e-04    -7.43812548e-05    -1.02127538e-04 
   -2.01119242e-04    -8.91025351e-05     1.05699250e-04 
   -2.07792449e-04    -9.39218610e-05     9.07436425e-05 
   -2.16370485e-04    -8.49662523e-05     6.66254448e-05 
   -2.19504874e-04    -8.67555468e-05     4.35559493e-05 
   -2.19915920e-04    -8.16195656e-05     1.04194895e-05 
   -2.19916487e-04    -8.16115946e-05    -1.04307539e-05 
   -2.19506967e-04    -8.67639980e-05    -4.35706084e-05 
   -2.16374394e-04    -8.49594643e-05    -6.66381111e-05 
   -2.07790211e-04    -9.39686487e-05    -9.07987364e-05 
   -2.01115872e-04    -8.91088292e-05    -1.05715508e-04 
   -1.82498024e-04    -1.24612696e-04     1.06618960e-04 
   -2.11391278e-04    -1.07001913e-04     1.05794660e-04 
   -2.14114691e-04    -1.04793735e-04     5.97933408e-05 
   -2.17161063e-04    -1.00612538e-04     5.05006278e-05 
   -2.16327673e-04    -9.76879727e-05     3.47386690e-06 
   -2.16326492e-04    -9.76879070e-05    -3.49620758e-06 
   -2.17165090e-04    -1.00610867e-04    -5.05267258e-05 
   -2.14115488e-04    -1.04792936e-04    -5.98186131e-05 
   -2.11402946e-04    -1.06996308e-04    -1.05833014e-04 
   -1.82416314e-04    -1.24590282e-04    -1.06645292e-04 
   -1.69711248e-04     1.19399017e-04     1.10991400e-04 
   -1.57236300e-04     1.07477047e-04     9.65930459e-05 
   -1.76206466e-04     1.05219343e-04     7.35772363e-05 
   -1.70257511e-04     1.01536031e-04     4.59954903e-05 
   -1.76362331e-04     9.89902148e-05     1.14963155e-05 
   -1.76375528e-04     9.89904542e-05    -1.15035030e-05 
   -1.70244951e-04     1.01535398e-04    -4.60040337e-05 
   -1.76219206e-04     1.05218423e-04    -7.35861902e-05 
   -1.57217700e-04     1.07471756e-04    -9.66039511e-05 
   -1.69702645e-04     1.19406801e-04    -1.11005510e-04 
   -1.72835732e-04     9.09567973e-05     1.05455446e-04 
   -1.67774633e-04     1.01521479e-04     8.61282354e-05 
   -1.78107964e-04     9.19616846e-05     8.03980751e-05 
   -1.75677991e-04     9.62543557e-05     4.16633763e-05 
   -1.80890680e-04     9.02327727e-05     1.72649584e-05 
   -1.80903910e-04     9.02185665e-05    -1.72705277e-05 
   -1.75665839e-04     9.62686221e-05    -4.16646734e-05 
   -1.78120088e-04     9.19451474e-05    -8.04119723e-05 
   -1.67775552e-04     1.01528619e-04    -8.61065043e-05 
   -1.72850719e-04     9.09424321e-05    -1.05461547e-04 
   -1.65725180e-04     8.17712887e-05     1.03195301e-04 
   -1.70789719e-04     7.54419440e-05     9.92208612e-05 
   -1.80444821e-04     7.86527928e-05     7.49183880e-05 
   -1.84701395e-04     7.15798025e-05     4.62867269e-05 
   -1.88690685e-04     7.15211343e-05     1.28311692e-05 
   -1.88697890e-04     7.15236610e-05    -1.28361670e-05 
   -1.84693823e-04     7.15770797e-05    -4.62925547e-05 
   -1.80455816e-04     7.86620847e-05    -7.49281945e-05 
   -1.70780261e-04     7.54405262e-05    -9.92282192e-05 
   -1.65723366e-04     8.17892095e-05    -1.03205359e-04 
   -1.73963963e-04     3.82785416e-05     9.99568875e-05 
   -1.79119113e-04     4.51362611e-05     9.04930591e-05 
   -1.84905023e-04     4.15397120e-05     7.28833764e-05 
   -1.92131589e-04     4.25188548e-05     4.15315233e-05 
   -1.94116682e-04     4.11972916e-05     1.47246649e-05 
   -1.94121432e-04     4.11902195e-05    -1.47321996e-05 
   -1.92124959e-04     4.25239844e-05    -4.15368363e-05 
   -1.84908156e-04     4.15307758e-05    -7.28931396e-05 
   -1.79119397e-04     4.51383656e-05    -9.04909026e-05 
   -1.73971369e-04     3.82643737e-05    -9.99673251e-05 
   -1.72399678e-04     1.94925737e-05     9.73480924e-05 
   -1.79173774e-04     1.48725582e-05     9.24622093e-05 
   -1.86845815e-04     1.72406145e-05     7.07808038e-05 
   -1.94874991e-04     1.39038955e-05     4.18668043e-05 
   -1.97602682e-04     1.46478506e-05     1.32535211e-05 
   -1.97609944e-04     1.46534201e-05    -1.32618708e-05 
   -1.94871460e-04     1.39007717e-05    -4.18728017e-05 
   -1.86849099e-04     1.72473249e-05    -7.07898471e-05 
   -1.79171939e-04     1.48696720e-05    -9.24677306e-05 
   -1.72401772e-04     1.95041012e-05    -9.73581142e-05 
   -1.72399678e-04    -1.94925737e-05     9.73480924e-05 
   -1.79173774e-04    -1.48725582e-05     9.24622093e-05 
   -1.86845815e-04    -1.72406145e-05     7.07808038e-05 
   -1.94874991e-04    -1.39038955e-05     4.18668043e-05 
   -1.97602682e-04    -1.46478506e-05     1.32535211e-05 
   -1.97609944e-04    -1.46534201e-05    -1.32618708e-05 
   -1.94871460e-04    -1.39007717e-05    -4.18728017e-05 
   -1.86849099e-04    -1.72473249e-05    -7.07898471e-05 
   -1.79171939e-04    -1.48696720e-05    -9.24677306e-05 
   -1.72401772e-04    -1.95041012e-05    -9.73581142e-05 
   -1.73963963e-04    -3.82785416e-05     9.99568875e-05 
   -1.79119113e-04    -4.51362611e-05     9.04930591e-05 
   -1.84905023e-04    -4.15397120e-05     7.28833764e-05 
   -1.92131589e-04    -4.25188548e-05     4.15315233e-05 
   -1.94116682e-04    -4.11972916e-05     1.47246649e-05 
   -1.94121432e-04    -4.11902195e-05    -1.47321996e-05 
   -1.92124959e-04    -4.25239844e-05    -4.15368363e-05 
   -1.84908156e-04    -4.15307758e-05    -7.28931396e-05 
   -1.79119397e-04    -4.51383656e-05    -9.04909026e-05 
   -1.73971369e-04    -3.82643737e-05    -9.99673251e-05 
   -1.65725180e-04    -8.17712887e-05     1.03195301e-04 
   -1.70789719e-04    -7.54419440e-05     9.92208612e-05 
   -1.80444821e-04    -7.86527928e-05     7.49183880e-05 
   -1.84701395e-04    -7.15798025e-05     4.62867269e-05 
   -1.88690685e-04    -7.15211343e-05     1.28311692e-05 
   -1.88697890e-04    -7.15236610e-05    -1.28361670e-05 
   -1.84693823e-04    -7.15770797e-05    -4.62925547e-05 
   -1.80455816e-04    -7.86620847e-05    -7.49281945e-05 
   -1.70780261e-04    -7.54405262e-05    -9.92282192e-05 
   -1.65723366e-04    -8.17892095e-05    -1.03205359e-04 
   -1.72835732e-04    -9.09567973e-05     1.05455446e-04 
   -1.67774633e-04    -1.01521479e-04     8.61282354e-05 
   -1.78107964e-04    -9.19616846e-05     8.03980751e-05 
   -1.75677991e-04    -9.62543557e-05     4.16633763e-05 
   -1.80890680e-04    -9.02327727e-05     1.72649584e-05 
   -1.80903910e-04    -9.02185665e-05    -1.72705277e-05 
   -1.75665839e-04    -9.62686221e-05    -4.16646734e-05 
   -1.78120088e-04    -9.19451474e-05    -8.04119723e-05 
   -1.67775552e-04    -1.01528619e-04    -8.61065043e-05 
   -1.72850719e-04    -9.09424321e-05    -1.05461547e-04 
   -1.69711248e-04    -1.19399017e-04     1.10991400e-04 
   -1.57236300e-04    -1.07477047e-04     9.65930459e-05 
   -1.76206466e-04    -1.05219343e-04     7.35772363e-05 
   -1.70257511e-04    -1.01536031e-04     4.59954903e-05 
   -1.76362331e-04    -9.89902148e-05     1.14963155e-05 
   -1.76375528e-04    -9.89904542e-05    -1.15035030e-05 
   -1.70244951e-04    -1.01535398e-04    -4.60040337e-05 
   -1.76219206e-04    -1.05218423e-04    -7.35861902e-05 
   -1.57217700e-04    -1.07471756e-04    -9.66039511e-05 
   -1.69702645e-04    -1.19406801e-04    -1.11005510e-04 
   -1.12733068e-04     1.20021058e-04     1.13415905e-04 
   -1.27514323e-04     1.12968614e-04     1.04929250e-04 
   -1.23949902e-04     1.12478160e-04     7.61921075e-05 
   -1.33000166e-04     1.08607994e-04     5.27260801e-05 
   -1.35359555e-04     1.06336613e-04     1.07929647e-05 
   -1.35359467e-04     1.06336035e-04    -1.08019647e-05 
   -1.33002172e-04     1.08607527e-04    -5.27392969e-05 
   -1.23949956e-04     1.12475974e-04    -7.62002323e-05 
   -1.27523432e-04     1.12966172e-04    -1.04947679e-04 
   -1.12718820e-04     1.20019929e-04    -1.13425670e-04 
   -1.15925067e-04     1.06738425e-04     1.10674069e-04 
   -1.25804435e-04     1.00842650e-04     1.02973661e-04 
   -1.24482686e-04     9.88141015e-05     7.76172363e-05 
   -1.34406524e-04     9.63870480e-05     5.14340098e-05 
   -1.36626258e-04     9.25631220e-05     1.39769765e-05 
   -1.36625394e-04     9.25560532e-05    -1.39809117e-05 
   -1.34408396e-04     9.63952463e-05    -5.14420599e-05 
   -1.24480012e-04     9.88085500e-05    -7.76215476e-05 
   -1.25817453e-04     1.00844530e-04    -1.02980610e-04 
   -1.15918704e-04     1.06746356e-04    -1.10682162e-04 
   -1.23799699e-04     8.01251037e-05     1.11046797e-04 
   -1.29320901e-04     7.71107267e-05     9.95133983e-05 
   -1.32197952e-04     7.91673092e-05     7.69297955e-05 
   -1.39828431e-04     7.48942304e-05     5.09542287e-05 
   -1.42952659e-04     7.40491413e-05     1.41555851e-05 
   -1.42951961e-04     7.40501767e-05    -1.41621351e-05 
   -1.39830965e-04     7.48932309e-05    -5.09619982e-05 
   -1.32199797e-04     7.91698215e-05    -7.69365052e-05 
   -1.29327538e-04     7.71056289e-05    -9.95245325e-05 
   -1.23800696e-04     8.01309317e-05    -1.11053842e-04 
   -1.31901808e-04     4.66366748e-05     1.07472013e-04 
   -1.33331462e-04     4.87811879e-05     9.41427839e-05 
   -1.38951448e-04     4.74126967e-05     7.55872090e-05 
   -1.46857519e-04     4.70717468e-05     4.71797486e-05 
   -1.50127150e-04     4.55325814e-05     1.55953651e-05 
   -1.50127674e-04     4.55271273e-05    -1.56028556e-05 
   -1.46861208e-04     4.70768562e-05    -4.71872829e-05 
   -1.38951831e-04     4.74089129e-05    -7.55971880e-05 
   -1.33332436e-04     4.87847704e-05    -9.41495456e-05 
   -1.31903767e-04     4.66334772e-05    -1.07480902e-04 
   -1.34528991e-04     1.68962305e-05     1.05137590e-04 
   -1.36533808e-04     1.67343356e-05     9.28840055e-05 
   -1.42752315e-04     1.74701467e-05     7.39792076e-05 
   -1.50067167e-04     1.53667202e-05     4.57741223e-05 
   -1.54722484e-04     1.57466560e-05     1.51414416e-05 
   -1.54722587e-04     1.57498756e-05    -1.51501962e-05 
   -1.50067635e-04     1.53627157e-05    -4.57808050e-05 
   -1.42752632e-04     1.74735797e-05    -7.39884245e-05 
   -1.36536189e-04     1.67319806e-05    -9.28933180e-05 
   -1.34529714e-04     1.69007374e-05    -1.05146108e-04 
   -1.34528991e-04    -1.68962305e-05     1.05137590e-04 
   -1.36533808e-04    -1.67343356e-05     9.28840055e-05 
   -1.42752315e-04    -1.74701467e-05     7.39792076e-05 
   -1.50067167e-04    -1.53667202e-05     4.57741223e-05 
   -1.54722484e-04    -1.57466560e-05     1.51414416e-05 
   -1.54722587e-04    -1.57498756e-05    -1.51501962e-05 
   -1.50067635e-04    -1.53627157e-05    -4.57808050e-05 
   -1.42752632e-04    -1.74735797e-05    -7.39884245e-05 
   -1.36536189e-04    -1.67319806e-05    -9.28933180e-05 
   -1.34529714e-04    -1.69007374e-05    -1.05146108e-04 
   -1.31901808e-04    -4.66366748e-05     1.07472013e-04 
   -1.33331462e-04    -4.87811879e-05     9.41427839e-05 
   -1.38951448e-04    -4.74126967e-05     7.55872090e-05 
   -1.46857519e-04    -4.70717468e-05     4.71797486e-05 
   -1.50127150e-04    -4.55325814e-05     1.55953651e-05 
   -1.50127674e-04    -4.55271273e-05    -1.56028556e-05 
   -1.46861208e-04    -4.70768562e-05    -4.71872829e-05 
   -1.38951831e-04    -4.74089129e-05    -7.55971880e-05 
   -1.33332436e-04    -4.87847704e-05    -9.41495456e-05 
   -1.31903767e-04    -4.66334772e-05    -1.07480902e-04 
   -1.23799699e-04    -8.01251037e-05     1.11046797e-04 
   -1.29320901e-04    -7.71107267e-05     9.95133983e-05 
   -1.32197952e-04    -7.91673092e-05     7.69297955e-05 
   -1.39828431e-04    -7.48942304e-05     5.09542287e-05 
   -1.42952659e-04    -7.40491413e-05     1.41555851e-05 
   -1.42951961e-04    -7.40501767e-05    -1.41621351e-05 
   -1.39830965e-04    -7.48932309e-05    -5.09619982e-05 
   -1.32199797e-04    -7.91698215e-05    -7.69365052e-05 
   -1.29327538e-04    -7.71056289e-05    -9.95245325e-05 
   -1.23800696e-04    -8.01309317e-05    -1.11053842e-04 
   -1.15925067e-04    -1.06738425e-04     1.10674069e-04 
   -1.25804435e-04    -1.00842650e-04     1.02973661e-04 
   -1.24482686e-04    -9.88141015e-05     7.76172363e-05 
   -1.34406524e-04    -9.63870480e-05     5.14340098e-05 
   -1.36626258e-04    -9.25631220e-05     1.39769765e-05 
   -1.36625394e-04    -9.25560532e-05    -1.39809117e-05 
   -1.34408396e-04    -9.63952463e-05    -5.14420599e-05 
   -1.24480012e-04    -9.88085500e-05    -7.76215476e-05 
   -1.25817453e-04    -1.00844530e-04    -1.02980610e-04 
   -1.15918704e-04    -1.06746356e-04    -1.10682162e-04 
   -1.12733068e-04    -1.20021058e-04     1.13415905e-04 
   -1.27514323e-04    -1.12968614e-04     1.04929250e-04 
   -1.23949902e-04    -1.12478160e-04     7.61921075e-05 
   -1.33000166e-04    -1.08607994e-04     5.27260801e-05 
   -1.35359555e-04    -1.06336613e-04     1.07929647e-05 
   -1.35359467e-04    -1.06336035e-04    -1.08019647e-05 
   -1.33002172e-04    -1.08607527e-04    -5.27392969e-05 
   -1.23949956e-04    -1.12475974e-04    -7.62002323e-05 
   -1.27523432e-04    -1.12966172e-04    -1.04947679e-04 
   -1.12718820e-04    -1.20019929e-04    -1.13425670e-04 
   -7.94144285e-05     1.23872747e-04     1.17466277e-04 
   -6.97307655e-05     1.14699225e-04     1.01649112e-04 
   -8.06778012e-05     1.11564528e-04     8.05560491e-05 
   -8.10668499e-05     1.09392483e-04     5.05641626e-05 
   -8.57334994e-05     1.05857688e-04     1.52459209e-05 
   -8.57395412e-05     1.05857557e-04    -1.52550528e-05 
   -8.10608791e-05     1.09391500e-04    -5.05719930e-05 
   -8.06833133e-05     1.11563689e-04    -8.05685794e-05 
   -6.97268816e-05     1.14698039e-04    -1.01654193e-04 
   -7.94119921e-05     1.23877245e-04    -1.17481641e-04 
   -7.80014419e-05     1.03129501e-04     1.11793147e-04 
   -7.12725082e-05     1.03171071e-04     1.00945284e-04 
   -7.92697709e-05     1.00012442e-04     8.15810390e-05 
   -8.16922843e-05     9.71731237e-05     4.98994542e-05 
   -8.48251313e-05     9.54439290e-05     1.80856338e-05 
   -8.48291161e-05     9.54384855e-05    -1.80916626e-05 
   -8.16900786e-05     9.71770431e-05    -4.98994601e-05 
   -7.92760115e-05     1.00006668e-04    -8.15896714e-05 
   -7.12741746e-05     1.03170293e-04    -1.00938314e-04 
   -7.80110437e-05     1.03120109e-04    -1.11799837e-04 
   -7.87641728e-05     7.97430881e-05     1.09934743e-04 
   -7.55441581e-05     8.04729105e-05     9.79042565e-05 
   -8.26598232e-05     8.10256975e-05     8.15740285e-05 
   -8.68282011e-05     7.72773327e-05     5.12491657e-05 
   -9.09774252e-05     7.60340464e-05     1.73514359e-05 
   -9.09816253e-05     7.60345839e-05    -1.73577896e-05 
   -8.68253305e-05     7.72768956e-05    -5.12515871e-05 
   -8.26681022e-05     8.10290648e-05    -8.15835819e-05 
   -7.55436086e-05     8.04731730e-05    -9.79044608e-05 
   -7.87693472e-05     7.97474109e-05    -1.09941793e-04 
   -8.25178468e-05     4.85606965e-05     1.08468691e-04 
   -8.05132688e-05     5.15506660e-05     9.73955112e-05 
   -8.81039937e-05     4.97889276e-05     7.74297122e-05 
   -9.27848215e-05     4.90584144e-05     4.94692913e-05 
   -9.56048787e-05     4.82115699e-05     1.67902572e-05 
   -9.56076400e-05     4.82077935e-05    -1.67980030e-05 
   -9.27847913e-05     4.90598013e-05    -4.94739632e-05 
   -8.81075832e-05     4.97825427e-05    -7.74381892e-05 
   -8.05132832e-05     5.15508221e-05    -9.73980278e-05 
   -8.25215698e-05     4.85531013e-05    -1.08475499e-04 
   -8.38208840e-05     1.81456341e-05     1.05001228e-04 
   -8.40371854e-05     1.78706741e-05     9.66763321e-05 
   -9.03239039e-05     1.76805494e-05     7.58538230e-05 