# vtk DataFile Version 2.0 
generated by Lattice Boltzmann Method time =   8.08290377e-01
ASCII 
DATASET UNSTRUCTURED_GRID

POINTS   1000 FLOAT 
  0.00000000e+00   0.00000000e+00   0.00000000e+00 
  0.00000000e+00   0.00000000e+00   1.00000000e-01 
  0.00000000e+00   0.00000000e+00   2.00000000e-01 
  0.00000000e+00   0.00000000e+00   3.00000000e-01 
  0.00000000e+00   0.00000000e+00   4.00000000e-01 
  0.00000000e+00   0.00000000e+00   5.00000000e-01 
  0.00000000e+00   0.00000000e+00   6.00000000e-01 
  0.00000000e+00   0.00000000e+00   7.00000000e-01 
  0.00000000e+00   0.00000000e+00   8.00000000e-01 
  0.00000000e+00   0.00000000e+00   9.00000000e-01 
  0.00000000e+00   1.00000000e-01   0.00000000e+00 
  0.00000000e+00   1.00000000e-01   1.00000000e-01 
  0.00000000e+00   1.00000000e-01   2.00000000e-01 
  0.00000000e+00   1.00000000e-01   3.00000000e-01 
  0.00000000e+00   1.00000000e-01   4.00000000e-01 
  0.00000000e+00   1.00000000e-01   5.00000000e-01 
  0.00000000e+00   1.00000000e-01   6.00000000e-01 
  0.00000000e+00   1.00000000e-01   7.00000000e-01 
  0.00000000e+00   1.00000000e-01   8.00000000e-01 
  0.00000000e+00   1.00000000e-01   9.00000000e-01 
  0.00000000e+00   2.00000000e-01   0.00000000e+00 
  0.00000000e+00   2.00000000e-01   1.00000000e-01 
  0.00000000e+00   2.00000000e-01   2.00000000e-01 
  0.00000000e+00   2.00000000e-01   3.00000000e-01 
  0.00000000e+00   2.00000000e-01   4.00000000e-01 
  0.00000000e+00   2.00000000e-01   5.00000000e-01 
  0.00000000e+00   2.00000000e-01   6.00000000e-01 
  0.00000000e+00   2.00000000e-01   7.00000000e-01 
  0.00000000e+00   2.00000000e-01   8.00000000e-01 
  0.00000000e+00   2.00000000e-01   9.00000000e-01 
  0.00000000e+00   3.00000000e-01   0.00000000e+00 
  0.00000000e+00   3.00000000e-01   1.00000000e-01 
  0.00000000e+00   3.00000000e-01   2.00000000e-01 
  0.00000000e+00   3.00000000e-01   3.00000000e-01 
  0.00000000e+00   3.00000000e-01   4.00000000e-01 
  0.00000000e+00   3.00000000e-01   5.00000000e-01 
  0.00000000e+00   3.00000000e-01   6.00000000e-01 
  0.00000000e+00   3.00000000e-01   7.00000000e-01 
  0.00000000e+00   3.00000000e-01   8.00000000e-01 
  0.00000000e+00   3.00000000e-01   9.00000000e-01 
  0.00000000e+00   4.00000000e-01   0.00000000e+00 
  0.00000000e+00   4.00000000e-01   1.00000000e-01 
  0.00000000e+00   4.00000000e-01   2.00000000e-01 
  0.00000000e+00   4.00000000e-01   3.00000000e-01 
  0.00000000e+00   4.00000000e-01   4.00000000e-01 
  0.00000000e+00   4.00000000e-01   5.00000000e-01 
  0.00000000e+00   4.00000000e-01   6.00000000e-01 
  0.00000000e+00   4.00000000e-01   7.00000000e-01 
  0.00000000e+00   4.00000000e-01   8.00000000e-01 
  0.00000000e+00   4.00000000e-01   9.00000000e-01 
  0.00000000e+00   5.00000000e-01   0.00000000e+00 
  0.00000000e+00   5.00000000e-01   1.00000000e-01 
  0.00000000e+00   5.00000000e-01   2.00000000e-01 
  0.00000000e+00   5.00000000e-01   3.00000000e-01 
  0.00000000e+00   5.00000000e-01   4.00000000e-01 
  0.00000000e+00   5.00000000e-01   5.00000000e-01 
  0.00000000e+00   5.00000000e-01   6.00000000e-01 
  0.00000000e+00   5.00000000e-01   7.00000000e-01 
  0.00000000e+00   5.00000000e-01   8.00000000e-01 
  0.00000000e+00   5.00000000e-01   9.00000000e-01 
  0.00000000e+00   6.00000000e-01   0.00000000e+00 
  0.00000000e+00   6.00000000e-01   1.00000000e-01 
  0.00000000e+00   6.00000000e-01   2.00000000e-01 
  0.00000000e+00   6.00000000e-01   3.00000000e-01 
  0.00000000e+00   6.00000000e-01   4.00000000e-01 
  0.00000000e+00   6.00000000e-01   5.00000000e-01 
  0.00000000e+00   6.00000000e-01   6.00000000e-01 
  0.00000000e+00   6.00000000e-01   7.00000000e-01 
  0.00000000e+00   6.00000000e-01   8.00000000e-01 
  0.00000000e+00   6.00000000e-01   9.00000000e-01 
  0.00000000e+00   7.00000000e-01   0.00000000e+00 
  0.00000000e+00   7.00000000e-01   1.00000000e-01 
  0.00000000e+00   7.00000000e-01   2.00000000e-01 
  0.00000000e+00   7.00000000e-01   3.00000000e-01 
  0.00000000e+00   7.00000000e-01   4.00000000e-01 
  0.00000000e+00   7.00000000e-01   5.00000000e-01 
  0.00000000e+00   7.00000000e-01   6.00000000e-01 
  0.00000000e+00   7.00000000e-01   7.00000000e-01 
  0.00000000e+00   7.00000000e-01   8.00000000e-01 
  0.00000000e+00   7.00000000e-01   9.00000000e-01 
  0.00000000e+00   8.00000000e-01   0.00000000e+00 
  0.00000000e+00   8.00000000e-01   1.00000000e-01 
  0.00000000e+00   8.00000000e-01   2.00000000e-01 
  0.00000000e+00   8.00000000e-01   3.00000000e-01 
  0.00000000e+00   8.00000000e-01   4.00000000e-01 
  0.00000000e+00   8.00000000e-01   5.00000000e-01 
  0.00000000e+00   8.00000000e-01   6.00000000e-01 
  0.00000000e+00   8.00000000e-01   7.00000000e-01 
  0.00000000e+00   8.00000000e-01   8.00000000e-01 
  0.00000000e+00   8.00000000e-01   9.00000000e-01 
  0.00000000e+00   9.00000000e-01   0.00000000e+00 
  0.00000000e+00   9.00000000e-01   1.00000000e-01 
  0.00000000e+00   9.00000000e-01   2.00000000e-01 
  0.00000000e+00   9.00000000e-01   3.00000000e-01 
  0.00000000e+00   9.00000000e-01   4.00000000e-01 
  0.00000000e+00   9.00000000e-01   5.00000000e-01 
  0.00000000e+00   9.00000000e-01   6.00000000e-01 
  0.00000000e+00   9.00000000e-01   7.00000000e-01 
  0.00000000e+00   9.00000000e-01   8.00000000e-01 
  0.00000000e+00   9.00000000e-01   9.00000000e-01 
  1.00000000e-01   0.00000000e+00   0.00000000e+00 
  1.00000000e-01   0.00000000e+00   1.00000000e-01 
  1.00000000e-01   0.00000000e+00   2.00000000e-01 
  1.00000000e-01   0.00000000e+00   3.00000000e-01 
  1.00000000e-01   0.00000000e+00   4.00000000e-01 
  1.00000000e-01   0.00000000e+00   5.00000000e-01 
  1.00000000e-01   0.00000000e+00   6.00000000e-01 
  1.00000000e-01   0.00000000e+00   7.00000000e-01 
  1.00000000e-01   0.00000000e+00   8.00000000e-01 
  1.00000000e-01   0.00000000e+00   9.00000000e-01 
  1.00000000e-01   1.00000000e-01   0.00000000e+00 
  1.00000000e-01   1.00000000e-01   1.00000000e-01 
  1.00000000e-01   1.00000000e-01   2.00000000e-01 
  1.00000000e-01   1.00000000e-01   3.00000000e-01 
  1.00000000e-01   1.00000000e-01   4.00000000e-01 
  1.00000000e-01   1.00000000e-01   5.00000000e-01 
  1.00000000e-01   1.00000000e-01   6.00000000e-01 
  1.00000000e-01   1.00000000e-01   7.00000000e-01 
  1.00000000e-01   1.00000000e-01   8.00000000e-01 
  1.00000000e-01   1.00000000e-01   9.00000000e-01 
  1.00000000e-01   2.00000000e-01   0.00000000e+00 
  1.00000000e-01   2.00000000e-01   1.00000000e-01 
  1.00000000e-01   2.00000000e-01   2.00000000e-01 
  1.00000000e-01   2.00000000e-01   3.00000000e-01 
  1.00000000e-01   2.00000000e-01   4.00000000e-01 
  1.00000000e-01   2.00000000e-01   5.00000000e-01 
  1.00000000e-01   2.00000000e-01   6.00000000e-01 
  1.00000000e-01   2.00000000e-01   7.00000000e-01 
  1.00000000e-01   2.00000000e-01   8.00000000e-01 
  1.00000000e-01   2.00000000e-01   9.00000000e-01 
  1.00000000e-01   3.00000000e-01   0.00000000e+00 
  1.00000000e-01   3.00000000e-01   1.00000000e-01 
  1.00000000e-01   3.00000000e-01   2.00000000e-01 
  1.00000000e-01   3.00000000e-01   3.00000000e-01 
  1.00000000e-01   3.00000000e-01   4.00000000e-01 
  1.00000000e-01   3.00000000e-01   5.00000000e-01 
  1.00000000e-01   3.00000000e-01   6.00000000e-01 
  1.00000000e-01   3.00000000e-01   7.00000000e-01 
  1.00000000e-01   3.00000000e-01   8.00000000e-01 
  1.00000000e-01   3.00000000e-01   9.00000000e-01 
  1.00000000e-01   4.00000000e-01   0.00000000e+00 
  1.00000000e-01   4.00000000e-01   1.00000000e-01 
  1.00000000e-01   4.00000000e-01   2.00000000e-01 
  1.00000000e-01   4.00000000e-01   3.00000000e-01 
  1.00000000e-01   4.00000000e-01   4.00000000e-01 
  1.00000000e-01   4.00000000e-01   5.00000000e-01 
  1.00000000e-01   4.00000000e-01   6.00000000e-01 
  1.00000000e-01   4.00000000e-01   7.00000000e-01 
  1.00000000e-01   4.00000000e-01   8.00000000e-01 
  1.00000000e-01   4.00000000e-01   9.00000000e-01 
  1.00000000e-01   5.00000000e-01   0.00000000e+00 
  1.00000000e-01   5.00000000e-01   1.00000000e-01 
  1.00000000e-01   5.00000000e-01   2.00000000e-01 
  1.00000000e-01   5.00000000e-01   3.00000000e-01 
  1.00000000e-01   5.00000000e-01   4.00000000e-01 
  1.00000000e-01   5.00000000e-01   5.00000000e-01 
  1.00000000e-01   5.00000000e-01   6.00000000e-01 
  1.00000000e-01   5.00000000e-01   7.00000000e-01 
  1.00000000e-01   5.00000000e-01   8.00000000e-01 
  1.00000000e-01   5.00000000e-01   9.00000000e-01 
  1.00000000e-01   6.00000000e-01   0.00000000e+00 
  1.00000000e-01   6.00000000e-01   1.00000000e-01 
  1.00000000e-01   6.00000000e-01   2.00000000e-01 
  1.00000000e-01   6.00000000e-01   3.00000000e-01 
  1.00000000e-01   6.00000000e-01   4.00000000e-01 
  1.00000000e-01   6.00000000e-01   5.00000000e-01 
  1.00000000e-01   6.00000000e-01   6.00000000e-01 
  1.00000000e-01   6.00000000e-01   7.00000000e-01 
  1.00000000e-01   6.00000000e-01   8.00000000e-01 
  1.00000000e-01   6.00000000e-01   9.00000000e-01 
  1.00000000e-01   7.00000000e-01   0.00000000e+00 
  1.00000000e-01   7.00000000e-01   1.00000000e-01 
  1.00000000e-01   7.00000000e-01   2.00000000e-01 
  1.00000000e-01   7.00000000e-01   3.00000000e-01 
  1.00000000e-01   7.00000000e-01   4.00000000e-01 
  1.00000000e-01   7.00000000e-01   5.00000000e-01 
  1.00000000e-01   7.00000000e-01   6.00000000e-01 
  1.00000000e-01   7.00000000e-01   7.00000000e-01 
  1.00000000e-01   7.00000000e-01   8.00000000e-01 
  1.00000000e-01   7.00000000e-01   9.00000000e-01 
  1.00000000e-01   8.00000000e-01   0.00000000e+00 
  1.00000000e-01   8.00000000e-01   1.00000000e-01 
  1.00000000e-01   8.00000000e-01   2.00000000e-01 
  1.00000000e-01   8.00000000e-01   3.00000000e-01 
  1.00000000e-01   8.00000000e-01   4.00000000e-01 
  1.00000000e-01   8.00000000e-01   5.00000000e-01 
  1.00000000e-01   8.00000000e-01   6.00000000e-01 
  1.00000000e-01   8.00000000e-01   7.00000000e-01 
  1.00000000e-01   8.00000000e-01   8.00000000e-01 
[...]
POINT_DATA   1000
FIELD solution 1
u 3   1000 DOUBLE
   -2.00182628e-04     8.73727901e-05     8.57723828e-05 
   -2.13349571e-04     8.27759937e-05     7.41648091e-05 
   -2.24708046e-04     8.16454129e-05     5.91110991e-05 
   -2.32307916e-04     7.98497262e-05     3.77721947e-05 
   -2.34913326e-04     7.81796917e-05     1.25315857e-05 
   -2.34913701e-04     7.81801383e-05    -1.25366817e-05 
   -2.32308477e-04     7.98482870e-05    -3.77819367e-05 
   -2.24710136e-04     8.16478194e-05    -5.91178506e-05 
   -2.13353966e-04     8.27734010e-05    -7.41736908e-05 
   -2.00072404e-04     8.73223132e-05    -8.57666412e-05 
   -2.11199660e-04     7.73345927e-05     8.19045790e-05 
   -2.23438934e-04     7.14476972e-05     7.06149181e-05 
   -2.35586018e-04     7.09021444e-05     5.75950068e-05 
   -2.44100666e-04     6.91978549e-05     3.79308319e-05 
   -2.47128872e-04     6.86019095e-05     1.25411181e-05 
   -2.47129086e-04     6.86020698e-05    -1.25472499e-05 
   -2.44101420e-04     6.91982800e-05    -3.79401938e-05 
   -2.35588006e-04     7.09010110e-05    -5.76063842e-05 
   -2.23438742e-04     7.14750484e-05    -7.06483156e-05 
   -2.11205764e-04     7.73405266e-05    -8.19071561e-05 
   -2.22571080e-04     5.97778415e-05     8.07576096e-05 
   -2.35174914e-04     5.80621904e-05     7.00702046e-05 
   -2.47173778e-04     5.80378588e-05     5.77478654e-05 
   -2.56043111e-04     5.65381771e-05     3.82582908e-05 
   -2.59407144e-04     5.61615513e-05     1.23591190e-05 
   -2.59407358e-04     5.61622568e-05    -1.23644907e-05 
   -2.56043520e-04     5.65377056e-05    -3.82688276e-05 
   -2.47173480e-04     5.80683170e-05    -5.77841398e-05 
   -2.35177779e-04     5.80691431e-05    -7.00753295e-05 
   -2.22574296e-04     5.97823508e-05    -8.07660026e-05 
   -2.30655163e-04     3.86806058e-05     7.92141296e-05 
   -2.43537347e-04     3.81828922e-05     6.86719378e-05 
   -2.55743845e-04     3.85733990e-05     5.60357368e-05 
   -2.65066074e-04     3.80120449e-05     3.77557761e-05 
   -2.68792777e-04     3.78191388e-05     1.23940438e-05 
   -2.68792995e-04     3.78195508e-05    -1.23991209e-05 
   -2.65066043e-04     3.80390855e-05    -3.77869867e-05 
   -2.55745092e-04     3.85803798e-05    -5.60411056e-05 
   -2.43539590e-04     3.81885974e-05    -6.86793088e-05 
   -2.30657592e-04     3.86891712e-05    -7.92186494e-05 
   -2.33377622e-04     1.20536263e-05     7.75977026e-05 
   -2.46514565e-04     1.25203142e-05     6.79772665e-05 
   -2.59013565e-04     1.21276664e-05     5.56832168e-05 
   -2.68665677e-04     1.24037196e-05     3.73832687e-05 
   -2.71967047e-04     1.23570953e-05     1.22488230e-05 
   -2.71967087e-04     1.23728532e-05    -1.22669109e-05 
   -2.68666460e-04     1.24066561e-05    -3.73870552e-05 
   -2.59015176e-04     1.21297964e-05    -5.56888823e-05 
   -2.46516986e-04     1.25241048e-05    -6.79830883e-05 
   -2.33380268e-04     1.20554915e-05    -7.76029149e-05 
   -2.33377622e-04    -1.20536263e-05     7.75977026e-05 
   -2.46514565e-04    -1.25203142e-05     6.79772665e-05 
   -2.59013565e-04    -1.21276664e-05     5.56832168e-05 
   -2.68665677e-04    -1.24037196e-05     3.73832687e-05 
   -2.71967047e-04    -1.23570953e-05     1.22488230e-05 
   -2.71967087e-04    -1.23728532e-05    -1.22669109e-05 
   -2.68666460e-04    -1.24066561e-05    -3.73870552e-05 
   -2.59015176e-04    -1.21297964e-05    -5.56888823e-05 
   -2.46516986e-04    -1.25241048e-05    -6.79830883e-05 
   -2.33380268e-04    -1.20554915e-05    -7.76029149e-05 
   -2.30655163e-04    -3.86806058e-05     7.92141296e-05 
   -2.43537347e-04    -3.81828922e-05     6.86719378e-05 
   -2.55743845e-04    -3.85733990e-05     5.60357368e-05 
   -2.65066074e-04    -3.80120449e-05     3.77557761e-05 
   -2.68792777e-04    -3.78191388e-05     1.23940438e-05 
   -2.68792995e-04    -3.78195508e-05    -1.23991209e-05 
   -2.65066043e-04    -3.80390855e-05    -3.77869867e-05 
   -2.55745092e-04    -3.85803798e-05    -5.60411056e-05 
   -2.43539590e-04    -3.81885974e-05    -6.86793088e-05 
   -2.30657592e-04    -3.86891712e-05    -7.92186494e-05 
   -2.22571080e-04    -5.97778415e-05     8.07576096e-05 
   -2.35174914e-04    -5.80621904e-05     7.00702046e-05 
   -2.47173778e-04    -5.80378588e-05     5.77478654e-05 
   -2.56043111e-04    -5.65381771e-05     3.82582908e-05 
   -2.59407144e-04    -5.61615513e-05     1.23591190e-05 
   -2.59407358e-04    -5.61622568e-05    -1.23644907e-05 
   -2.56043520e-04    -5.65377056e-05    -3.82688276e-05 
   -2.47173480e-04    -5.80683170e-05    -5.77841398e-05 
   -2.35177779e-04    -5.80691431e-05    -7.00753295e-05 
   -2.22574296e-04    -5.97823508e-05    -8.07660026e-05 
   -2.11199660e-04    -7.73345927e-05     8.19045790e-05 
   -2.23438934e-04    -7.14476972e-05     7.06149181e-05 
   -2.35586018e-04    -7.09021444e-05     5.75950068e-05 
   -2.44100666e-04    -6.91978549e-05     3.79308319e-05 
   -2.47128872e-04    -6.86019095e-05     1.25411181e-05 
   -2.47129086e-04    -6.86020698e-05    -1.25472499e-05 
   -2.44101420e-04    -6.91982800e-05    -3.79401938e-05 
   -2.35588006e-04    -7.09010110e-05    -5.76063842e-05 
   -2.23438742e-04    -7.14750484e-05    -7.06483156e-05 
   -2.11205764e-04    -7.73405266e-05    -8.19071561e-05 
   -2.00182628e-04    -8.73727901e-05     8.57723828e-05 
   -2.13349571e-04    -8.27759937e-05     7.41648091e-05 
   -2.24708046e-04    -8.16454129e-05     5.91110991e-05 
   -2.32307916e-04    -7.98497262e-05     3.77721947e-05 
   -2.34913326e-04    -7.81796917e-05     1.25315857e-05 
   -2.34913701e-04    -7.81801383e-05    -1.25366817e-05 
   -2.32308477e-04    -7.98482870e-05    -3.77819367e-05 
   -2.24710136e-04    -8.16478194e-05    -5.91178506e-05 
   -2.13353966e-04    -8.27734010e-05    -7.41736908e-05 
   -2.00072404e-04    -8.73223132e-05    -8.57666412e-05 
   -1.59367532e-04     8.77445894e-05     8.83712750e-05 
   -1.71809060e-04     8.59247806e-05     8.31291558e-05 
   -1.80744540e-04     8.40260484e-05     6.83913135e-05 
   -1.85678878e-04     8.30473431e-05     4.45820135e-05 
   -1.87447358e-04     8.21800247e-05     1.48067165e-05 
   -1.87446617e-04     8.21800850e-05    -1.48065567e-05 
   -1.85679935e-04     8.30469201e-05    -4.45835314e-05 
   -1.80747975e-04     8.40283887e-05    -6.83895774e-05 
   -1.71809727e-04     8.59229584e-05    -8.31287113e-05 
   -1.59328012e-04     8.77359446e-05    -8.83638217e-05 
   -1.69274521e-04     8.39462904e-05     8.56696433e-05 
   -1.81985522e-04     7.95046227e-05     7.97574615e-05 
   -1.91021022e-04     8.00240730e-05     6.69787564e-05 
   -1.97003047e-04     7.85775023e-05     4.47115377e-05 
   -1.99488234e-04     7.82758460e-05     1.51194898e-05 
   -1.99487478e-04     7.82759354e-05    -1.51197263e-05 
   -1.97004306e-04     7.85774695e-05    -4.47123788e-05 
   -1.91018902e-04     8.00234338e-05    -6.69812932e-05 
   -1.81997927e-04     7.94959641e-05    -7.97523897e-05 
   -1.69276271e-04     8.39443439e-05    -8.56700051e-05 
   -1.79344208e-04     6.85537058e-05     8.38097655e-05 
   -1.90823474e-04     6.72296378e-05     7.98774698e-05 
   -2.02397716e-04     6.62382997e-05     6.62999747e-05 
   -2.07457145e-04     6.64317240e-05     4.49241119e-05 
   -2.10466331e-04     6.63020111e-05     1.50212724e-05 
   -2.10466144e-04     6.63023242e-05    -1.50216371e-05 
   -2.07455437e-04     6.64311455e-05    -4.49283179e-05 
   -2.02402636e-04     6.62395260e-05    -6.63042513e-05 
   -1.90822395e-04     6.72304367e-05    -7.98796972e-05 
   -1.79349552e-04     6.85508075e-05    -8.38153448e-05 
   -1.84258741e-04     4.49371626e-05     8.28950061e-05 
   -1.96367401e-04     4.45347185e-05     7.87410262e-05 
   -2.07257406e-04     4.50117425e-05     6.62628049e-05 
   -2.13560141e-04     4.43941666e-05     4.44490177e-05 
   -2.16020690e-04     4.45750128e-05     1.53932969e-05 
   -2.16019511e-04     4.45753364e-05    -1.53944657e-05 
   -2.13561608e-04     4.43987490e-05    -4.44547844e-05 
   -2.07255977e-04     4.50150243e-05    -6.62649711e-05 
   -1.96369207e-04     4.45350292e-05    -7.87449164e-05 
   -1.84260677e-04     4.49397312e-05    -8.28978576e-05 
   -1.86294632e-04     1.46691509e-05     8.20807124e-05 
   -1.98872401e-04     1.52160309e-05     7.82235997e-05 
   -2.10176881e-04     1.48141603e-05     6.62750348e-05 
   -2.15850464e-04     1.53905338e-05     4.44978327e-05 
   -2.18583330e-04     1.48336589e-05     1.48626491e-05 
   -2.18582450e-04     1.48367335e-05    -1.48659412e-05 
   -2.15849658e-04     1.53920668e-05    -4.44989216e-05 
   -2.10177507e-04     1.48145233e-05    -6.62778761e-05 
   -1.98873258e-04     1.52170224e-05    -7.82264571e-05 
   -1.86296585e-04     1.46696295e-05    -8.20836246e-05 
   -1.86294632e-04    -1.46691509e-05     8.20807124e-05 
   -1.98872401e-04    -1.52160309e-05     7.82235997e-05 
   -2.10176881e-04    -1.48141603e-05     6.62750348e-05 
   -2.15850464e-04    -1.53905338e-05     4.44978327e-05 
   -2.18583330e-04    -1.48336589e-05     1.48626491e-05 
   -2.18582450e-04    -1.48367335e-05    -1.48659412e-05 
   -2.15849658e-04    -1.53920668e-05    -4.44989216e-05 
   -2.10177507e-04    -1.48145233e-05    -6.62778761e-05 
   -1.98873258e-04    -1.52170224e-05    -7.82264571e-05 
   -1.86296585e-04    -1.46696295e-05    -8.20836246e-05 
   -1.84258741e-04    -4.49371626e-05     8.28950061e-05 
   -1.96367401e-04    -4.45347185e-05     7.87410262e-05 
   -2.07257406e-04    -4.50117425e-05     6.62628049e-05 
   -2.13560141e-04    -4.43941666e-05     4.44490177e-05 
   -2.16020690e-04    -4.45750128e-05     1.53932969e-05 
   -2.16019511e-04    -4.45753364e-05    -1.53944657e-05 
   -2.13561608e-04    -4.43987490e-05    -4.44547844e-05 
   -2.07255977e-04    -4.50150243e-05    -6.62649711e-05 
   -1.96369207e-04    -4.45350292e-05    -7.87449164e-05 
   -1.84260677e-04    -4.49397312e-05    -8.28978576e-05 
   -1.79344208e-04    -6.85537058e-05     8.38097655e-05 
   -1.90823474e-04    -6.72296378e-05     7.98774698e-05 
   -2.02397716e-04    -6.62382997e-05     6.62999747e-05 
   -2.07457145e-04    -6.64317240e-05     4.49241119e-05 
   -2.10466331e-04    -6.63020111e-05     1.50212724e-05 
   -2.10466144e-04    -6.63023242e-05    -1.50216371e-05 
   -2.07455437e-04    -6.64311455e-05    -4.49283179e-05 
   -2.02402636e-04    -6.62395260e-05    -6.63042513e-05 
   -1.90822395e-04    -6.72304367e-05    -7.98796972e-05 
   -1.79349552e-04    -6.85508075e-05    -8.38153448e-05 
   -1.69274521e-04    -8.39462904e-05     8.56696433e-05 
   -1.81985522e-04    -7.95046227e-05     7.97574615e-05 
   -1.91021022e-04    -8.00240730e-05     6.69787564e-05 
   -1.97003047e-04    -7.85775023e-05     4.47115377e-05 
   -1.99488234e-04    -7.82758460e-05     1.51194898e-05 
   -1.99487478e-04    -7.82759354e-05    -1.51197263e-05 
   -1.97004306e-04    -7.85774695e-05    -4.47123788e-05 
   -1.91018902e-04    -8.00234338e-05    -6.69812932e-05 
   -1.81997927e-04    -7.94959641e-05    -7.97523897e-05 
   -1.69276271e-04    -8.39443439e-05    -8.56700051e-05 
   -1.59367532e-04    -8.77445894e-05     8.83712750e-05 
   -1.71809060e-04    -8.59247806e-05     8.31291558e-05 
   -1.80744540e-04    -8.40260484e-05     6.83913135e-05 
   -1.85678878e-04    -8.30473431e-05     4.45820135e-05 
   -1.87447358e-04    -8.21800247e-05     1.48067165e-05 
   -1.87446617e-04    -8.21800850e-05    -1.48065567e-05 
   -1.85679935e-04    -8.30469201e-05    -4.45835314e-05 
   -1.80747975e-04    -8.40283887e-05    -6.83895774e-05 
   -1.71809727e-04    -8.59229584e-05    -8.31287113e-05 
   -1.59328012e-04    -8.77359446e-05    -8.83638217e-05 
   -1.29957651e-04     1.06871164e-04     1.05929675e-04 
   -1.37980044e-04     1.06765790e-04     9.29206950e-05 
   -1.41348823e-04     1.04192630e-04     7.61160534e-05 
   -1.45573354e-04     1.03730042e-04     4.90276806e-05 
   -1.47790888e-04     1.03359408e-04     1.71162483e-05 
   -1.47791117e-04     1.03359425e-04    -1.71169297e-05 
   -1.45573004e-04     1.03729444e-04    -4.90293983e-05 
   -1.41347688e-04     1.04190898e-04    -7.61199724e-05 
   -1.37979510e-04     1.06765178e-04    -9.29240360e-05 
   -1.29934574e-04     1.06870129e-04    -1.05930557e-04 
   -1.36722020e-04     9.35359706e-05     1.06501073e-04 
   -1.43875704e-04     9.09473517e-05     9.07988174e-05 
   -1.46919124e-04     9.04481361e-05     7.53875311e-05 
   -1.51267443e-04     9.03456773e-05     4.87289949e-05 
   -1.53806232e-04     9.03006346e-05     1.74183081e-05 
   -1.53805902e-04     9.03005722e-05    -1.74184881e-05 
   -1.51265058e-04     9.03448783e-05    -4.87315839e-05 
   -1.46921470e-04     9.04473617e-05    -7.53869233e-05 
   -1.43887669e-04     9.09455966e-05    -9.07990890e-05 
   -1.36722792e-04     9.35378845e-05    -1.06503059e-04 
   -1.39936328e-04     7.66236851e-05     1.04202378e-04 
   -1.46637281e-04     7.51432191e-05     9.05100802e-05 
   -1.51020286e-04     7.43237123e-05     7.45448107e-05 
   -1.55435284e-04     7.48237350e-05     4.86806553e-05 
   -1.57856712e-04     7.49197839e-05     1.70973845e-05 
   -1.57855569e-04     7.49199364e-05    -1.70984588e-05 
   -1.55434576e-04     7.48234940e-05    -4.86815470e-05 
   -1.51026123e-04     7.43223168e-05    -7.45457968e-05 
   -1.46639985e-04     7.51409159e-05    -9.05119845e-05 
   -1.39936510e-04     7.66261539e-05    -1.04203776e-04 
   -1.44643672e-04     4.91121053e-05     1.03790621e-04 
   -1.51021293e-04     4.85485556e-05     9.04894314e-05 
   -1.55185151e-04     4.86534409e-05     7.48576121e-05 
   -1.60583032e-04     4.84343240e-05     4.84939772e-05 
   -1.62701899e-04     4.87134609e-05     1.72382830e-05 
   -1.62701702e-04     4.87133896e-05    -1.72390665e-05 
   -1.60581270e-04     4.84376691e-05    -4.84986960e-05 
   -1.55184472e-04     4.86534529e-05    -7.48598134e-05 
   -1.51019602e-04     4.85506056e-05    -9.04916764e-05 
   -1.44644634e-04     4.91137784e-05    -1.03793092e-04 
   -1.46853444e-04     1.67796022e-05     1.03460994e-04 
   -1.53370286e-04     1.72262474e-05     9.02866955e-05 
   -1.57533287e-04     1.69205542e-05     7.50155757e-05 
   -1.62567034e-04     1.71429304e-05     4.86601766e-05 
   -1.64905626e-04     1.68763616e-05     1.68649892e-05 
   -1.64904988e-04     1.68791782e-05    -1.68675971e-05 
   -1.62566536e-04     1.71431191e-05    -4.86614926e-05 
   -1.57532074e-04     1.69217912e-05    -7.50180194e-05 
   -1.53370634e-04     1.72271231e-05    -9.02893078e-05 
   -1.46855019e-04     1.67803085e-05    -1.03463680e-04 
   -1.46853444e-04    -1.67796022e-05     1.03460994e-04 
   -1.53370286e-04    -1.72262474e-05     9.02866955e-05 
   -1.57533287e-04    -1.69205542e-05     7.50155757e-05 
   -1.62567034e-04    -1.71429304e-05     4.86601766e-05 
   -1.64905626e-04    -1.68763616e-05     1.68649892e-05 
   -1.64904988e-04    -1.68791782e-05    -1.68675971e-05 
   -1.62566536e-04    -1.71431191e-05    -4.86614926e-05 
   -1.57532074e-04    -1.69217912e-05    -7.50180194e-05 
   -1.53370634e-04    -1.72271231e-05    -9.02893078e-05 
   -1.46855019e-04    -1.67803085e-05    -1.03463680e-04 
   -1.44643672e-04    -4.91121053e-05     1.03790621e-04 
   -1.51021293e-04    -4.85485556e-05     9.04894314e-05 
   -1.55185151e-04    -4.86534409e-05     7.48576121e-05 
   -1.60583032e-04    -4.84343240e-05     4.84939772e-05 
   -1.62701899e-04    -4.87134609e-05     1.72382830e-05 
   -1.62701702e-04    -4.87133896e-05    -1.72390665e-05 
   -1.60581270e-04    -4.84376691e-05    -4.84986960e-05 
   -1.55184472e-04    -4.86534529e-05    -7.48598134e-05 
   -1.51019602e-04    -4.85506056e-05    -9.04916764e-05 
   -1.44644634e-04    -4.91137784e-05    -1.03793092e-04 
   -1.39936328e-04    -7.66236851e-05     1.04202378e-04 
   -1.46637281e-04    -7.51432191e-05     9.05100802e-05 
   -1.51020286e-04    -7.43237123e-05     7.45448107e-05 
   -1.55435284e-04    -7.48237350e-05     4.86806553e-05 
   -1.57856712e-04    -7.49197839e-05     1.70973845e-05 
   -1.57855569e-04    -7.49199364e-05    -1.70984588e-05 
   -1.55434576e-04    -7.48234940e-05    -4.86815470e-05 
   -1.51026123e-04    -7.43223168e-05    -7.45457968e-05 
   -1.46639985e-04    -7.51409159e-05    -9.05119845e-05 
   -1.39936510e-04    -7.66261539e-05    -1.04203776e-04 
   -1.36722020e-04    -9.35359706e-05     1.06501073e-04 
   -1.43875704e-04    -9.09473517e-05     9.07988174e-05 
   -1.46919124e-04    -9.04481361e-05     7.53875311e-05 
   -1.51267443e-04    -9.03456773e-05     4.87289949e-05 
   -1.53806232e-04    -9.03006346e-05     1.74183081e-05 
   -1.53805902e-04    -9.03005722e-05    -1.74184881e-05 
   -1.51265058e-04    -9.03448783e-05    -4.87315839e-05 
   -1.46921470e-04    -9.04473617e-05    -7.53869233e-05 
   -1.43887669e-04    -9.09455966e-05    -9.07990890e-05 
   -1.36722792e-04    -9.35378845e-05    -1.06503059e-04 
   -1.29957651e-04    -1.06871164e-04     1.05929675e-04 
   -1.37980044e-04    -1.06765790e-04     9.29206950e-05 
   -1.41348823e-04    -1.04192630e-04     7.61160534e-05 
   -1.45573354e-04    -1.03730042e-04     4.90276806e-05 
   -1.47790888e-04    -1.03359408e-04     1.71162483e-05 
   -1.47791117e-04    -1.03359425e-04    -1.71169297e-05 
   -1.45573004e-04    -1.03729444e-04    -4.90293983e-05 
   -1.41347688e-04    -1.04190898e-04    -7.61199724e-05 
   -1.37979510e-04    -1.06765178e-04    -9.29240360e-05 
   -1.29934574e-04    -1.06870129e-04    -1.05930557e-04 
   -8.74255072e-05     1.20187751e-04     1.18967766e-04 
   -9.28811694e-05     1.19868826e-04     1.02988329e-04 
   -9.68327698e-05     1.18295136e-04     7.94710089e-05 
   -9.82852514e-05     1.17185836e-04     5.18276375e-05 
   -9.98667154e-05     1.17060004e-04     1.73536341e-05 
   -9.98663207e-05     1.17059719e-04    -1.73547189e-05 
   -9.82836290e-05     1.17185051e-04    -5.18307281e-05 
   -9.68315233e-05     1.18294079e-04    -7.94736520e-05 
   -9.28813294e-05     1.19868284e-04    -1.02991746e-04 
   -8.74136332e-05     1.20187952e-04    -1.18970003e-04 
   -9.18860118e-05     1.03799220e-04     1.19756918e-04 
   -9.67422063e-05     1.01399281e-04     1.01330452e-04 
   -9.99785179e-05     1.01395492e-04     7.88227612e-05 
   -1.01615118e-04     1.01024620e-04     5.10062135e-05 
   -1.03276042e-04     1.01328465e-04     1.79250857e-05 
   -1.03274963e-04     1.01328554e-04    -1.79260529e-05 
   -1.01615332e-04     1.01023635e-04    -5.10065089e-05 
   -9.99787706e-05     1.01394731e-04    -7.88234390e-05 
   -9.67494473e-05     1.01398214e-04    -1.01331719e-04 
   -9.18861902e-05     1.03801105e-04    -1.19758641e-04 
   -9.63589895e-05     7.96779163e-05     1.18265598e-04 
   -1.00017957e-04     7.86886112e-05     1.01657808e-04 
   -1.04506564e-04     7.86192479e-05     7.87569098e-05 
   -1.06156059e-04     7.84681628e-05     5.14996769e-05 
   -1.07868362e-04     7.87432505e-05     1.73419861e-05 
   -1.07868099e-04     7.87429571e-05    -1.73423964e-05 
   -1.06155915e-04     7.84679486e-05    -5.15005230e-05 
   -1.04508601e-04     7.86185665e-05    -7.87582296e-05 
   -1.00018465e-04     7.86875721e-05    -1.01659555e-04 
   -9.63584625e-05     7.96794073e-05    -1.18267162e-04 
   -9.75082711e-05     5.17316371e-05     1.17316459e-04 
   -1.01557588e-04     5.06072725e-05     1.01012084e-04 
   -1.06038253e-04     5.12968366e-05     7.84612534e-05 
   -1.07869689e-04     5.09257751e-05     5.10235016e-05 
   -1.09259205e-04     5.12554484e-05     1.77881062e-05 
   -1.09258799e-04     5.12557170e-05    -1.77884540e-05 
   -1.07870355e-04     5.09259357e-05    -5.10254883e-05 
   -1.06037919e-04     5.12966370e-05    -7.84632930e-05 
   -1.01557943e-04     5.06067551e-05    -1.01013645e-04 
   -9.75073954e-05     5.17340602e-05    -1.17318071e-04 
   -9.93618915e-05     1.71333751e-05     1.17238069e-04 
   -1.03122241e-04     1.78497955e-05     1.01363201e-04 
   -1.07720211e-04     1.71909818e-05     7.86788687e-05 