# vtk DataFile Version 2.0 
generated by Lattice Boltzmann Method time =   4.04145188e-01
ASCII 
DATASET UNSTRUCTURED_GRID

POINTS   1000 FLOAT 
  0.00000000e+00   0.00000000e+00   0.00000000e+00 
  0.00000000e+00   0.00000000e+00   1.00000000e-01 
  0.00000000e+00   0.00000000e+00   2.00000000e-01 
  0.00000000e+00   0.00000000e+00   3.00000000e-01 
  0.00000000e+00   0.00000000e+00   4.00000000e-01 
  0.00000000e+00   0.00000000e+00   5.00000000e-01 
  0.00000000e+00   0.00000000e+00   6.00000000e-01 
  0.00000000e+00   0.00000000e+00   7.00000000e-01 
  0.00000000e+00   0.00000000e+00   8.00000000e-01 
  0.00000000e+00   0.00000000e+00   9.00000000e-01 
  0.00000000e+00   1.00000000e-01   0.00000000e+00 
  0.00000000e+00   1.00000000e-01   1.00000000e-01 
  0.00000000e+00   1.00000000e-01   2.00000000e-01 
  0.00000000e+00   1.00000000e-01   3.00000000e-01 
  0.00000000e+00   1.00000000e-01   4.00000000e-01 
  0.00000000e+00   1.00000000e-01   5.00000000e-01 
  0.00000000e+00   1.00000000e-01   6.00000000e-01 
  0.00000000e+00   1.00000000e-01   7.00000000e-01 
  0.00000000e+00   1.00000000e-01   8.00000000e-01 
  0.00000000e+00   1.00000000e-01   9.00000000e-01 
  0.00000000e+00   2.00000000e-01   0.00000000e+00 
  0.00000000e+00   2.00000000e-01   1.00000000e-01 
  0.00000000e+00   2.00000000e-01   2.00000000e-01 
  0.00000000e+00   2.00000000e-01   3.00000000e-01 
  0.00000000e+00   2.00000000e-01   4.00000000e-01 
  0.00000000e+00   2.00000000e-01   5.00000000e-01 
  0.00000000e+00   2.00000000e-01   6.00000000e-01 
  0.00000000e+00   2.00000000e-01   7.00000000e-01 
  0.00000000e+00   2.00000000e-01   8.00000000e-01 
  0.00000000e+00   2.00000000e-01   9.00000000e-01 
  0.00000000e+00   3.00000000e-01   0.00000000e+00 
  0.00000000e+00   3.00000000e-01   1.00000000e-01 
  0.00000000e+00   3.00000000e-01   2.00000000e-01 
  0.00000000e+00   3.00000000e-01   3.00000000e-01 
  0.00000000e+00   3.00000000e-01   4.00000000e-01 
  0.00000000e+00   3.00000000e-01   5.00000000e-01 
  0.00000000e+00   3.00000000e-01   6.00000000e-01 
  0.00000000e+00   3.00000000e-01   7.00000000e-01 
  0.00000000e+00   3.00000000e-01   8.00000000e-01 
  0.00000000e+00   3.00000000e-01   9.00000000e-01 
  0.00000000e+00   4.00000000e-01   0.00000000e+00 
  0.00000000e+00   4.00000000e-01   1.00000000e-01 
  0.00000000e+00   4.00000000e-01   2.00000000e-01 
  0.00000000e+00   4.00000000e-01   3.00000000e-01 
  0.00000000e+00   4.00000000e-01   4.00000000e-01 
  0.00000000e+00   4.00000000e-01   5.00000000e-01 
  0.00000000e+00   4.00000000e-01   6.00000000e-01 
  0.00000000e+00   4.00000000e-01   7.00000000e-01 
  0.00000000e+00   4.00000000e-01   8.00000000e-01 
  0.00000000e+00   4.00000000e-01   9.00000000e-01 
  0.00000000e+00   5.00000000e-01   0.00000000e+00 
  0.00000000e+00   5.00000000e-01   1.00000000e-01 
  0.00000000e+00   5.00000000e-01   2.00000000e-01 
  0.00000000e+00   5.00000000e-01   3.00000000e-01 
  0.00000000e+00   5.00000000e-01   4.00000000e-01 
  0.00000000e+00   5.00000000e-01   5.00000000e-01 
  0.00000000e+00   5.00000000e-01   6.00000000e-01 
  0.00000000e+00   5.00000000e-01   7.00000000e-01 
  0.00000000e+00   5.00000000e-01   8.00000000e-01 
  0.00000000e+00   5.00000000e-01   9.00000000e-01 
  0.00000000e+00   6.00000000e-01   0.00000000e+00 
  0.00000000e+00   6.00000000e-01   1.00000000e-01 
  0.00000000e+00   6.00000000e-01   2.00000000e-01 
  0.00000000e+00   6.00000000e-01   3.00000000e-01 
  0.00000000e+00   6.00000000e-01   4.00000000e-01 
  0.00000000e+00   6.00000000e-01   5.00000000e-01 
  0.00000000e+00   6.00000000e-01   6.00000000e-01 
  0.00000000e+00   6.00000000e-01   7.00000000e-01 
  0.00000000e+00   6.00000000e-01   8.00000000e-01 
  0.00000000e+00   6.00000000e-01   9.00000000e-01 
  0.00000000e+00   7.00000000e-01   0.00000000e+00 
  0.00000000e+00   7.00000000e-01   1.00000000e-01 
  0.00000000e+00   7.00000000e-01   2.00000000e-01 
  0.00000000e+00   7.00000000e-01   3.00000000e-01 
  0.00000000e+00   7.00000000e-01   4.00000000e-01 
  0.00000000e+00   7.00000000e-01   5.00000000e-01 
  0.00000000e+00   7.00000000e-01   6.00000000e-01 
  0.00000000e+00   7.00000000e-01   7.00000000e-01 
  0.00000000e+00   7.00000000e-01   8.00000000e-01 
  0.00000000e+00   7.00000000e-01   9.00000000e-01 
  0.00000000e+00   8.00000000e-01   0.00000000e+00 
  0.00000000e+00   8.00000000e-01   1.00000000e-01 
  0.00000000e+00   8.00000000e-01   2.00000000e-01 
  0.00000000e+00   8.00000000e-01   3.00000000e-01 
  0.00000000e+00   8.00000000e-01   4.00000000e-01 
  0.00000000e+00   8.00000000e-01   5.00000000e-01 
  0.00000000e+00   8.00000000e-01   6.00000000e-01 
  0.00000000e+00   8.00000000e-01   7.00000000e-01 
  0.00000000e+00   8.00000000e-01   8.00000000e-01 
  0.00000000e+00   8.00000000e-01   9.00000000e-01 
  0.00000000e+00   9.00000000e-01   0.00000000e+00 
  0.00000000e+00   9.00000000e-01   1.00000000e-01 
  0.00000000e+00   9.00000000e-01   2.00000000e-01 
  0.00000000e+00   9.00000000e-01   3.00000000e-01 
  0.00000000e+00   9.00000000e-01   4.00000000e-01 
  0.00000000e+00   9.00000000e-01   5.00000000e-01 
  0.00000000e+00   9.00000000e-01   6.00000000e-01 
  0.00000000e+00   9.00000000e-01   7.00000000e-01 
  0.00000000e+00   9.00000000e-01   8.00000000e-01 
  0.00000000e+00   9.00000000e-01   9.00000000e-01 
  1.00000000e-01   0.00000000e+00   0.00000000e+00 
  1.00000000e-01   0.00000000e+00   1.00000000e-01 
  1.00000000e-01   0.00000000e+00   2.00000000e-01 
  1.00000000e-01   0.00000000e+00   3.00000000e-01 
  1.00000000e-01   0.00000000e+00   4.00000000e-01 
  1.00000000e-01   0.00000000e+00   5.00000000e-01 
  1.00000000e-01   0.00000000e+00   6.00000000e-01 
  1.00000000e-01   0.00000000e+00   7.00000000e-01 
  1.00000000e-01   0.00000000e+00   8.00000000e-01 
  1.00000000e-01   0.00000000e+00   9.00000000e-01 
  1.00000000e-01   1.00000000e-01   0.00000000e+00 
  1.00000000e-01   1.00000000e-01   1.00000000e-01 
  1.00000000e-01   1.00000000e-01   2.00000000e-01 
  1.00000000e-01   1.00000000e-01   3.00000000e-01 
  1.00000000e-01   1.00000000e-01   4.00000000e-01 
  1.00000000e-01   1.00000000e-01   5.00000000e-01 
  1.00000000e-01   1.00000000e-01   6.00000000e-01 
  1.00000000e-01   1.00000000e-01   7.00000000e-01 
  1.00000000e-01   1.00000000e-01   8.00000000e-01 
  1.00000000e-01   1.00000000e-01   9.00000000e-01 
  1.00000000e-01   2.00000000e-01   0.00000000e+00 
  1.00000000e-01   2.00000000e-01   1.00000000e-01 
  1.00000000e-01   2.00000000e-01   2.00000000e-01 
  1.00000000e-01   2.00000000e-01   3.00000000e-01 
  1.00000000e-01   2.00000000e-01   4.00000000e-01 
  1.00000000e-01   2.00000000e-01   5.00000000e-01 
  1.00000000e-01   2.00000000e-01   6.00000000e-01 
  1.00000000e-01   2.00000000e-01   7.00000000e-01 
  1.00000000e-01   2.00000000e-01   8.00000000e-01 
  1.00000000e-01   2.00000000e-01   9.00000000e-01 
  1.00000000e-01   3.00000000e-01   0.00000000e+00 
  1.00000000e-01   3.00000000e-01   1.00000000e-01 
  1.00000000e-01   3.00000000e-01   2.00000000e-01 
  1.00000000e-01   3.00000000e-01   3.00000000e-01 
  1.00000000e-01   3.00000000e-01   4.00000000e-01 
  1.00000000e-01   3.00000000e-01   5.00000000e-01 
  1.00000000e-01   3.00000000e-01   6.00000000e-01 
  1.00000000e-01   3.00000000e-01   7.00000000e-01 
  1.00000000e-01   3.00000000e-01   8.00000000e-01 
  1.00000000e-01   3.00000000e-01   9.00000000e-01 
  1.00000000e-01   4.00000000e-01   0.00000000e+00 
  1.00000000e-01   4.00000000e-01   1.00000000e-01 
  1.00000000e-01   4.00000000e-01   2.00000000e-01 
  1.00000000e-01   4.00000000e-01   3.00000000e-01 
  1.00000000e-01   4.00000000e-01   4.00000000e-01 
  1.00000000e-01   4.00000000e-01   5.00000000e-01 
  1.00000000e-01   4.00000000e-01   6.00000000e-01 
  1.00000000e-01   4.00000000e-01   7.00000000e-01 
  1.00000000e-01   4.00000000e-01   8.00000000e-01 
  1.00000000e-01   4.00000000e-01   9.00000000e-01 
  1.00000000e-01   5.00000000e-01   0.00000000e+00 
  1.00000000e-01   5.00000000e-01   1.00000000e-01 
  1.00000000e-01   5.00000000e-01   2.00000000e-01 
  1.00000000e-01   5.00000000e-01   3.00000000e-01 
  1.00000000e-01   5.00000000e-01   4.00000000e-01 
  1.00000000e-01   5.00000000e-01   5.00000000e-01 
  1.00000000e-01   5.00000000e-01   6.00000000e-01 
  1.00000000e-01   5.00000000e-01   7.00000000e-01 
  1.00000000e-01   5.00000000e-01   8.00000000e-01 
  1.00000000e-01   5.00000000e-01   9.00000000e-01 
  1.00000000e-01   6.00000000e-01   0.00000000e+00 
  1.00000000e-01   6.00000000e-01   1.00000000e-01 
  1.00000000e-01   6.00000000e-01   2.00000000e-01 
  1.00000000e-01   6.00000000e-01   3.00000000e-01 
  1.00000000e-01   6.00000000e-01   4.00000000e-01 
  1.00000000e-01   6.00000000e-01   5.00000000e-01 
  1.00000000e-01   6.00000000e-01   6.00000000e-01 
  1.00000000e-01   6.00000000e-01   7.00000000e-01 
  1.00000000e-01   6.00000000e-01   8.00000000e-01 
  1.00000000e-01   6.00000000e-01   9.00000000e-01 
  1.00000000e-01   7.00000000e-01   0.00000000e+00 
  1.00000000e-01   7.00000000e-01   1.00000000e-01 
  1.00000000e-01   7.00000000e-01   2.00000000e-01 
  1.00000000e-01   7.00000000e-01   3.00000000e-01 
  1.00000000e-01   7.00000000e-01   4.00000000e-01 
  1.00000000e-01   7.00000000e-01   5.00000000e-01 
  1.00000000e-01   7.00000000e-01   6.00000000e-01 
  1.00000000e-01   7.00000000e-01   7.00000000e-01 
  1.00000000e-01   7.00000000e-01   8.00000000e-01 
  1.00000000e-01   7.00000000e-01   9.00000000e-01 
  1.00000000e-01   8.00000000e-01   0.00000000e+00 
  1.00000000e-01   8.00000000e-01   1.00000000e-01 
  1.00000000e-01   8.00000000e-01   2.00000000e-01 
  1.00000000e-01   8.00000000e-01   3.00000000e-01 
  1.00000000e-01   8.00000000e-01   4.00000000e-01 
  1.00000000e-01   8.00000000e-01   5.00000000e-01 
  1.00000000e-01   8.00000000e-01   6.00000000e-01 
  1.00000000e-01   8.00000000e-01   7.00000000e-01 
  1.00000000e-01   8.00000000e-01   8.00000000e-01 
[...]
POINT_DATA   1000
FIELD solution 1
u 3   1000 DOUBLE
   -2.20498140e-04     4.45572017e-05     3.99901409e-05 
   -2.18068834e-04     4.29964335e-05     2.96429922e-05 
   -2.19917190e-04     4.59422553e-05     2.17194999e-05 
   -2.22479998e-04     4.90292527e-05     1.49664443e-05 
   -2.23241931e-04     5.06391359e-05     5.42770050e-06 
   -2.23241802e-04     5.06405381e-05    -5.43129473e-06 
   -2.22479717e-04     4.90296631e-05    -1.49685967e-05 
   -2.19918336e-04     4.59433487e-05    -2.17198114e-05 
   -2.18070299e-04     4.29952977e-05    -2.96447151e-05 
   -2.20445572e-04     4.45312422e-05    -3.99832121e-05 
   -2.17120120e-04     2.87885151e-05     4.26478478e-05 
   -2.10654838e-04     3.05336664e-05     3.01676597e-05 
   -2.13040470e-04     3.25016896e-05     2.16816296e-05 
   -2.15526817e-04     3.45941710e-05     1.51578282e-05 
   -2.16019211e-04     3.59067074e-05     6.02736849e-06 
   -2.16019193e-04     3.59065562e-05    -6.03279229e-06 
   -2.15526803e-04     3.45952750e-05    -1.51605165e-05 
   -2.13041498e-04     3.25018091e-05    -2.16850427e-05 
   -2.10655235e-04     3.05467240e-05    -3.01810469e-05 
   -2.17121677e-04     2.87878292e-05    -4.26468874e-05 
   -2.19348453e-04     2.09328854e-05     4.57777656e-05 
   -2.12951566e-04     2.15356959e-05     3.24101736e-05 
   -2.13189277e-04     2.44183466e-05     2.45052785e-05 
   -2.15417563e-04     2.44748687e-05     1.57525208e-05 
   -2.15654474e-04     2.54461785e-05     5.90417272e-06 
   -2.15654314e-04     2.54466738e-05    -5.90951853e-06 
   -2.15417501e-04     2.44742435e-05    -1.57562760e-05 
   -2.13189061e-04     2.44300842e-05    -2.45167691e-05 
   -2.12952645e-04     2.15389062e-05    -3.24104243e-05 
   -2.19349701e-04     2.09327483e-05    -4.57790306e-05 
   -2.22678534e-04     1.41275457e-05     4.90223227e-05 
   -2.15553994e-04     1.48312593e-05     3.44685450e-05 
   -2.15455866e-04     1.55234444e-05     2.44287913e-05 
   -2.17271038e-04     1.67539241e-05     1.67120241e-05 
   -2.17826384e-04     1.65318173e-05     6.11868313e-06 
   -2.17826358e-04     1.65313419e-05    -6.12473716e-06 
   -2.17270572e-04     1.67643162e-05    -1.67250473e-05 
   -2.15455766e-04     1.55253241e-05    -2.44287635e-05 
   -2.15553942e-04     1.48319750e-05    -3.44696103e-05 
   -2.22678093e-04     1.41286453e-05    -4.90228421e-05 
   -2.23402940e-04     5.28732886e-06     5.05939061e-05 
   -2.16064409e-04     5.86472532e-06     3.58277076e-05 
   -2.15680808e-04     5.90035793e-06     2.52426740e-05 
   -2.17838709e-04     6.11173353e-06     1.63411372e-05 
   -2.17964067e-04     6.39530887e-06     6.25122173e-06 
   -2.17963866e-04     6.40715909e-06    -6.26938836e-06 
   -2.17838470e-04     6.11249808e-06    -1.63448270e-05 
   -2.15680570e-04     5.90024397e-06    -2.52443154e-05 
   -2.16064187e-04     5.86561089e-06    -3.58286034e-05 
   -2.23402521e-04     5.28683043e-06    -5.05948259e-05 
   -2.23402940e-04    -5.28732886e-06     5.05939061e-05 
   -2.16064409e-04    -5.86472532e-06     3.58277076e-05 
   -2.15680808e-04    -5.90035793e-06     2.52426740e-05 
   -2.17838709e-04    -6.11173353e-06     1.63411372e-05 
   -2.17964067e-04    -6.39530887e-06     6.25122173e-06 
   -2.17963866e-04    -6.40715909e-06    -6.26938836e-06 
   -2.17838470e-04    -6.11249808e-06    -1.63448270e-05 
   -2.15680570e-04    -5.90024397e-06    -2.52443154e-05 
   -2.16064187e-04    -5.86561089e-06    -3.58286034e-05 
   -2.23402521e-04    -5.28683043e-06    -5.05948259e-05 
   -2.22678534e-04    -1.41275457e-05     4.90223227e-05 
   -2.15553994e-04    -1.48312593e-05     3.44685450e-05 
   -2.15455866e-04    -1.55234444e-05     2.44287913e-05 
   -2.17271038e-04    -1.67539241e-05     1.67120241e-05 
   -2.17826384e-04    -1.65318173e-05     6.11868313e-06 
   -2.17826358e-04    -1.65313419e-05    -6.12473716e-06 
   -2.17270572e-04    -1.67643162e-05    -1.67250473e-05 
   -2.15455766e-04    -1.55253241e-05    -2.44287635e-05 
   -2.15553942e-04    -1.48319750e-05    -3.44696103e-05 
   -2.22678093e-04    -1.41286453e-05    -4.90228421e-05 
   -2.19348453e-04    -2.09328854e-05     4.57777656e-05 
   -2.12951566e-04    -2.15356959e-05     3.24101736e-05 
   -2.13189277e-04    -2.44183466e-05     2.45052785e-05 
   -2.15417563e-04    -2.44748687e-05     1.57525208e-05 
   -2.15654474e-04    -2.54461785e-05     5.90417272e-06 
   -2.15654314e-04    -2.54466738e-05    -5.90951853e-06 
   -2.15417501e-04    -2.44742435e-05    -1.57562760e-05 
   -2.13189061e-04    -2.44300842e-05    -2.45167691e-05 
   -2.12952645e-04    -2.15389062e-05    -3.24104243e-05 
   -2.19349701e-04    -2.09327483e-05    -4.57790306e-05 
   -2.17120120e-04    -2.87885151e-05     4.26478478e-05 
   -2.10654838e-04    -3.05336664e-05     3.01676597e-05 
   -2.13040470e-04    -3.25016896e-05     2.16816296e-05 
   -2.15526817e-04    -3.45941710e-05     1.51578282e-05 
   -2.16019211e-04    -3.59067074e-05     6.02736849e-06 
   -2.16019193e-04    -3.59065562e-05    -6.03279229e-06 
   -2.15526803e-04    -3.45952750e-05    -1.51605165e-05 
   -2.13041498e-04    -3.25018091e-05    -2.16850427e-05 
   -2.10655235e-04    -3.05467240e-05    -3.01810469e-05 
   -2.17121677e-04    -2.87878292e-05    -4.26468874e-05 
   -2.20498140e-04    -4.45572017e-05     3.99901409e-05 
   -2.18068834e-04    -4.29964335e-05     2.96429922e-05 
   -2.19917190e-04    -4.59422553e-05     2.17194999e-05 
   -2.22479998e-04    -4.90292527e-05     1.49664443e-05 
   -2.23241931e-04    -5.06391359e-05     5.42770050e-06 
   -2.23241802e-04    -5.06405381e-05    -5.43129473e-06 
   -2.22479717e-04    -4.90296631e-05    -1.49685967e-05 
   -2.19918336e-04    -4.59433487e-05    -2.17198114e-05 
   -2.18070299e-04    -4.29952977e-05    -2.96447151e-05 
   -2.20445572e-04    -4.45312422e-05    -3.99832121e-05 
   -1.77641400e-04     4.17354999e-05     4.17265492e-05 
   -1.77179296e-04     3.96614841e-05     3.33843438e-05 
   -1.78490702e-04     4.22777555e-05     2.46092137e-05 
   -1.80844385e-04     4.46752085e-05     1.70994763e-05 
   -1.80756981e-04     4.65780734e-05     6.36686510e-06 
   -1.80757229e-04     4.65788264e-05    -6.36771096e-06 
   -1.80844575e-04     4.46759909e-05    -1.70985490e-05 
   -1.78491851e-04     4.22790329e-05    -2.46068903e-05 
   -1.77178591e-04     3.96605339e-05    -3.33839454e-05 
   -1.77625983e-04     4.17316808e-05    -4.17231397e-05 
   -1.76629782e-04     3.42000945e-05     3.96132386e-05 
   -1.75848629e-04     3.54413048e-05     3.53633334e-05 
   -1.77052346e-04     3.58890036e-05     2.50788556e-05 
   -1.79367752e-04     3.78221951e-05     1.71755039e-05 
   -1.78931084e-04     3.89407859e-05     6.68205542e-06 
   -1.78931250e-04     3.89408129e-05    -6.68343791e-06 
   -1.79368191e-04     3.78229661e-05    -1.71751333e-05 
   -1.77051367e-04     3.58891390e-05    -2.50793039e-05 
   -1.75853598e-04     3.54380464e-05    -3.53601241e-05 
   -1.76629843e-04     3.41988168e-05    -3.96123203e-05 
   -1.78193270e-04     2.49264990e-05     4.22720330e-05 
   -1.76890307e-04     2.50226980e-05     3.60605081e-05 
   -1.76866304e-04     2.70486054e-05     2.70666690e-05 
   -1.79326695e-04     2.69622692e-05     1.80834424e-05 
   -1.78909560e-04     2.78565011e-05     6.78845385e-06 
   -1.78909950e-04     2.78569088e-05    -6.79010887e-06 
   -1.79326320e-04     2.69618625e-05    -1.80847558e-05 
   -1.76867398e-04     2.70491043e-05    -2.70670209e-05 
   -1.76889366e-04     2.50229045e-05    -3.60605864e-05 
   -1.78194322e-04     2.49237751e-05    -4.22733325e-05 
   -1.81128256e-04     1.72969368e-05     4.46810826e-05 
   -1.79422886e-04     1.71544950e-05     3.78281388e-05 
   -1.79370086e-04     1.80310070e-05     2.70327489e-05 
   -1.81723687e-04     1.92116019e-05     1.92021025e-05 
   -1.81482576e-04     1.87415500e-05     7.07631138e-06 
   -1.81482085e-04     1.87412503e-05    -7.07900440e-06 
   -1.81724906e-04     1.92127067e-05    -1.92043882e-05 
   -1.79369336e-04     1.80315034e-05    -2.70326153e-05 
   -1.79423001e-04     1.71532832e-05    -3.78288184e-05 
   -1.81128243e-04     1.72954096e-05    -4.46818815e-05 
   -1.80913279e-04     6.48613313e-06     4.65713212e-05 
   -1.78974137e-04     6.65415705e-06     3.89932401e-05 
   -1.78949734e-04     6.81045968e-06     2.78420158e-05 
   -1.81499983e-04     7.09157915e-06     1.87254324e-05 
   -1.80934133e-04     7.20159292e-06     7.17872542e-06 
   -1.80934619e-04     7.20363576e-06    -7.18407691e-06 
   -1.81499695e-04     7.09196175e-06    -1.87273500e-05 
   -1.78949697e-04     6.80994042e-06    -2.78429073e-05 
   -1.78973905e-04     6.65399004e-06    -3.89936415e-05 
   -1.80912986e-04     6.48517659e-06    -4.65718960e-05 
   -1.80913279e-04    -6.48613313e-06     4.65713212e-05 
   -1.78974137e-04    -6.65415705e-06     3.89932401e-05 
   -1.78949734e-04    -6.81045968e-06     2.78420158e-05 
   -1.81499983e-04    -7.09157915e-06     1.87254324e-05 
   -1.80934133e-04    -7.20159292e-06     7.17872542e-06 
   -1.80934619e-04    -7.20363576e-06    -7.18407691e-06 
   -1.81499695e-04    -7.09196175e-06    -1.87273500e-05 
   -1.78949697e-04    -6.80994042e-06    -2.78429073e-05 
   -1.78973905e-04    -6.65399004e-06    -3.89936415e-05 
   -1.80912986e-04    -6.48517659e-06    -4.65718960e-05 
   -1.81128256e-04    -1.72969368e-05     4.46810826e-05 
   -1.79422886e-04    -1.71544950e-05     3.78281388e-05 
   -1.79370086e-04    -1.80310070e-05     2.70327489e-05 
   -1.81723687e-04    -1.92116019e-05     1.92021025e-05 
   -1.81482576e-04    -1.87415500e-05     7.07631138e-06 
   -1.81482085e-04    -1.87412503e-05    -7.07900440e-06 
   -1.81724906e-04    -1.92127067e-05    -1.92043882e-05 
   -1.79369336e-04    -1.80315034e-05    -2.70326153e-05 
   -1.79423001e-04    -1.71532832e-05    -3.78288184e-05 
   -1.81128243e-04    -1.72954096e-05    -4.46818815e-05 
   -1.78193270e-04    -2.49264990e-05     4.22720330e-05 
   -1.76890307e-04    -2.50226980e-05     3.60605081e-05 
   -1.76866304e-04    -2.70486054e-05     2.70666690e-05 
   -1.79326695e-04    -2.69622692e-05     1.80834424e-05 
   -1.78909560e-04    -2.78565011e-05     6.78845385e-06 
   -1.78909950e-04    -2.78569088e-05    -6.79010887e-06 
   -1.79326320e-04    -2.69618625e-05    -1.80847558e-05 
   -1.76867398e-04    -2.70491043e-05    -2.70670209e-05 
   -1.76889366e-04    -2.50229045e-05    -3.60605864e-05 
   -1.78194322e-04    -2.49237751e-05    -4.22733325e-05 
   -1.76629782e-04    -3.42000945e-05     3.96132386e-05 
   -1.75848629e-04    -3.54413048e-05     3.53633334e-05 
   -1.77052346e-04    -3.58890036e-05     2.50788556e-05 
   -1.79367752e-04    -3.78221951e-05     1.71755039e-05 
   -1.78931084e-04    -3.89407859e-05     6.68205542e-06 
   -1.78931250e-04    -3.89408129e-05    -6.68343791e-06 
   -1.79368191e-04    -3.78229661e-05    -1.71751333e-05 
   -1.77051367e-04    -3.58891390e-05    -2.50793039e-05 
   -1.75853598e-04    -3.54380464e-05    -3.53601241e-05 
   -1.76629843e-04    -3.41988168e-05    -3.96123203e-05 
   -1.77641400e-04    -4.17354999e-05     4.17265492e-05 
   -1.77179296e-04    -3.96614841e-05     3.33843438e-05 
   -1.78490702e-04    -4.22777555e-05     2.46092137e-05 
   -1.80844385e-04    -4.46752085e-05     1.70994763e-05 
   -1.80756981e-04    -4.65780734e-05     6.36686510e-06 
   -1.80757229e-04    -4.65788264e-05    -6.36771095e-06 
   -1.80844575e-04    -4.46759909e-05    -1.70985490e-05 
   -1.78491851e-04    -4.22790329e-05    -2.46068903e-05 
   -1.77178591e-04    -3.96605339e-05    -3.33839454e-05 
   -1.77625983e-04    -4.17316808e-05    -4.17231397e-05 
   -1.48936770e-04     3.99360307e-05     3.98310554e-05 
   -1.45368853e-04     3.77494121e-05     2.95613787e-05 
   -1.46191502e-04     4.04385379e-05     2.09089447e-05 
   -1.47729098e-04     4.19750854e-05     1.25380993e-05 
   -1.48229256e-04     4.34235623e-05     3.79717802e-06 
   -1.48230160e-04     4.34243121e-05    -3.79792286e-06 
   -1.47729933e-04     4.19756606e-05    -1.25386653e-05 
   -1.46190472e-04     4.04385222e-05    -2.09095987e-05 
   -1.45366959e-04     3.77488467e-05    -2.95618212e-05 
   -1.48923405e-04     3.99346846e-05    -3.98300435e-05 
   -1.44846851e-04     2.95745030e-05     3.76601971e-05 
   -1.41630929e-04     3.21048874e-05     3.22140296e-05 
   -1.41886726e-04     3.08950957e-05     2.14356307e-05 
   -1.42791841e-04     3.21747649e-05     1.29832722e-05 
   -1.42965131e-04     3.29770366e-05     4.32311746e-06 
   -1.42965349e-04     3.29770790e-05    -4.32414220e-06 
   -1.42791573e-04     3.21749711e-05    -1.29845331e-05 
   -1.41886973e-04     3.08951061e-05    -2.14350789e-05 
   -1.41633916e-04     3.21040211e-05    -3.22131580e-05 
   -1.44845105e-04     2.95749572e-05    -3.76597057e-05 
   -1.46017969e-04     2.14085264e-05     4.04514316e-05 
   -1.41896245e-04     2.14138041e-05     3.08318200e-05 
   -1.41277388e-04     2.35798988e-05     2.36020331e-05 
   -1.42952299e-04     2.25410891e-05     1.35279316e-05 
   -1.43102667e-04     2.30714612e-05     4.32283412e-06 
   -1.43102400e-04     2.30714675e-05    -4.32455279e-06 
   -1.42952888e-04     2.25410184e-05    -1.35282598e-05 
   -1.41280045e-04     2.35795595e-05    -2.36015346e-05 
   -1.41896702e-04     2.14131901e-05    -3.08318134e-05 
   -1.46017640e-04     2.14085907e-05    -4.04514290e-05 
   -1.47908553e-04     1.29406273e-05     4.19990277e-05 
   -1.42854778e-04     1.30462686e-05     3.22227990e-05 
   -1.42941723e-04     1.34968432e-05     2.26584917e-05 
   -1.44047628e-04     1.47885927e-05     1.47854942e-05 
   -1.44599546e-04     1.36233273e-05     4.48441432e-06 
   -1.44600211e-04     1.36231910e-05    -4.48620641e-06 
   -1.44049109e-04     1.47898706e-05    -1.47877645e-05 
   -1.42942070e-04     1.34965814e-05    -2.26586657e-05 
   -1.42854068e-04     1.30468247e-05    -3.22229612e-05 
   -1.47909036e-04     1.29406010e-05    -4.19995991e-05 
   -1.48492483e-04     4.09617725e-06     4.34235223e-05 
   -1.43083073e-04     4.34358008e-06     3.30056157e-05 
   -1.43170876e-04     4.40541451e-06     2.30507210e-05 
   -1.44632237e-04     4.52952871e-06     1.36007365e-05 
   -1.44826006e-04     4.79849530e-06     4.75334154e-06 
   -1.44826599e-04     4.80045483e-06    -4.75704112e-06 
   -1.44631868e-04     4.52898959e-06    -1.36022729e-05 
   -1.43169587e-04     4.40568006e-06    -2.30511864e-05 
   -1.43082588e-04     4.34376836e-06    -3.30061921e-05 
   -1.48492080e-04     4.09569921e-06    -4.34241449e-05 
   -1.48492483e-04    -4.09617725e-06     4.34235223e-05 
   -1.43083073e-04    -4.34358008e-06     3.30056157e-05 
   -1.43170876e-04    -4.40541451e-06     2.30507210e-05 
   -1.44632237e-04    -4.52952871e-06     1.36007365e-05 
   -1.44826006e-04    -4.79849530e-06     4.75334154e-06 
   -1.44826599e-04    -4.80045484e-06    -4.75704112e-06 
   -1.44631868e-04    -4.52898959e-06    -1.36022729e-05 
   -1.43169587e-04    -4.40568006e-06    -2.30511864e-05 
   -1.43082588e-04    -4.34376836e-06    -3.30061921e-05 
   -1.48492080e-04    -4.09569921e-06    -4.34241449e-05 
   -1.47908553e-04    -1.29406273e-05     4.19990277e-05 
   -1.42854778e-04    -1.30462686e-05     3.22227990e-05 
   -1.42941723e-04    -1.34968432e-05     2.26584917e-05 
   -1.44047628e-04    -1.47885927e-05     1.47854942e-05 
   -1.44599546e-04    -1.36233273e-05     4.48441432e-06 
   -1.44600211e-04    -1.36231910e-05    -4.48620641e-06 
   -1.44049109e-04    -1.47898706e-05    -1.47877645e-05 
   -1.42942070e-04    -1.34965814e-05    -2.26586657e-05 
   -1.42854068e-04    -1.30468247e-05    -3.22229612e-05 
   -1.47909036e-04    -1.29406010e-05    -4.19995991e-05 
   -1.46017969e-04    -2.14085264e-05     4.04514316e-05 
   -1.41896245e-04    -2.14138041e-05     3.08318200e-05 
   -1.41277388e-04    -2.35798988e-05     2.36020331e-05 
   -1.42952299e-04    -2.25410891e-05     1.35279316e-05 
   -1.43102667e-04    -2.30714612e-05     4.32283412e-06 
   -1.43102400e-04    -2.30714675e-05    -4.32455279e-06 
   -1.42952888e-04    -2.25410184e-05    -1.35282598e-05 
   -1.41280045e-04    -2.35795595e-05    -2.36015346e-05 
   -1.41896702e-04    -2.14131901e-05    -3.08318134e-05 
   -1.46017640e-04    -2.14085907e-05    -4.04514290e-05 
   -1.44846851e-04    -2.95745030e-05     3.76601971e-05 
   -1.41630929e-04    -3.21048874e-05     3.22140296e-05 
   -1.41886726e-04    -3.08950957e-05     2.14356307e-05 
   -1.42791841e-04    -3.21747649e-05     1.29832722e-05 
   -1.42965131e-04    -3.29770366e-05     4.32311746e-06 
   -1.42965349e-04    -3.29770790e-05    -4.32414220e-06 
   -1.42791573e-04    -3.21749711e-05    -1.29845331e-05 
   -1.41886973e-04    -3.08951061e-05    -2.14350789e-05 
   -1.41633916e-04    -3.21040211e-05    -3.22131580e-05 
   -1.44845105e-04    -2.95749572e-05    -3.76597057e-05 
   -1.48936770e-04    -3.99360307e-05     3.98310554e-05 
   -1.45368853e-04    -3.77494121e-05     2.95613787e-05 
   -1.46191502e-04    -4.04385379e-05     2.09089447e-05 
   -1.47729098e-04    -4.19750854e-05     1.25380993e-05 
   -1.48229256e-04    -4.34235623e-05     3.79717802e-06 
   -1.48230160e-04    -4.34243121e-05    -3.79792286e-06 
   -1.47729933e-04    -4.19756606e-05    -1.25386653e-05 
   -1.46190472e-04    -4.04385222e-05    -2.09095987e-05 
   -1.45366959e-04    -3.77488467e-05    -2.95618212e-05 
   -1.48923405e-04    -3.99346846e-05    -3.98300435e-05 
   -1.04536007e-04     3.68147135e-05     3.78395779e-05 
   -9.95748881e-05     3.38003749e-05     2.22637760e-05 
   -9.97627474e-05     3.55093389e-05     1.47628326e-05 
   -9.98720149e-05     3.60498430e-05     8.03394351e-06 
   -1.01639977e-04     3.66887912e-05     2.12767176e-06 
   -1.01640102e-04     3.66889445e-05    -2.12856090e-06 
   -9.98714518e-05     3.60498786e-05    -8.03523397e-06 
   -9.97620124e-05     3.55097445e-05    -1.47640886e-05 
   -9.95735676e-05     3.38008905e-05    -2.22646266e-05 
   -1.04526993e-04     3.68152868e-05    -3.78400624e-05 
   -9.90667975e-05     2.19753207e-05     3.38516363e-05 
   -9.31088730e-05     2.56603525e-05     2.56813979e-05 
   -9.31275846e-05     2.27474534e-05     1.57743383e-05 
   -9.26403123e-05     2.31907759e-05     8.45536830e-06 
   -9.42517289e-05     2.34590971e-05     2.40711762e-06 
   -9.42512163e-05     2.34591717e-05    -2.40835192e-06 
   -9.26409394e-05     2.31909611e-05    -8.45551573e-06 
   -9.31279863e-05     2.27477751e-05    -1.57745413e-05 
   -9.31116478e-05     2.56605863e-05    -2.56816080e-05 
   -9.90656728e-05     2.19761177e-05    -3.38521112e-05 
   -9.97902060e-05     1.51894617e-05     3.55379135e-05 
   -9.31217929e-05     1.58962119e-05     2.27397555e-05 
   -9.31787646e-05     1.82324653e-05     1.82588899e-05 
   -9.31047966e-05     1.60811751e-05     8.99193113e-06 
   -9.48492805e-05     1.63206086e-05     2.32420328e-06 
   -9.48497108e-05     1.63205359e-05    -2.32510486e-06 
   -9.31053143e-05     1.60812765e-05    -8.99225261e-06 
   -9.31811124e-05     1.82325920e-05    -1.82589876e-05 
   -9.31221912e-05     1.58964872e-05    -2.27400253e-05 
   -9.97895379e-05     1.51907199e-05    -3.55382926e-05 
   -9.98297686e-05     8.48775482e-06     3.60590492e-05 
   -9.27134667e-05     8.52460647e-06     2.32059842e-05 
   -9.31410188e-05     9.00872928e-06     1.61555464e-05 
   -9.27855334e-05     1.02815473e-05     1.02740267e-05 
   -9.47327723e-05     8.53554336e-06     2.39492700e-06 
   -9.47327336e-05     8.53556071e-06    -2.39586880e-06 
   -9.27865177e-05     1.02814751e-05    -1.02749294e-05 
   -9.31411701e-05     9.00845941e-06    -1.61557280e-05 
   -9.27136799e-05     8.52416602e-06    -2.32061865e-05 
   -9.98290742e-05     8.48843464e-06    -3.60591513e-05 
   -1.01692419e-04     2.21135921e-06     3.66890062e-05 
   -9.42957444e-05     2.43367462e-06     2.34411024e-05 
   -9.48552214e-05     2.36149029e-06     1.62609139e-05 