# vtk DataFile Version 2.0 
generated by Lattice Boltzmann Method time =   4.61880215e-01
ASCII 
DATASET UNSTRUCTURED_GRID

POINTS   1000 FLOAT 
  0.00000000e+00   0.00000000e+00   0.00000000e+00 
  0.00000000e+00   0.00000000e+00   1.00000000e-01 
  0.00000000e+00   0.00000000e+00   2.00000000e-01 
  0.00000000e+00   0.00000000e+00   3.00000000e-01 
  0.00000000e+00   0.00000000e+00   4.00000000e-01 
  0.00000000e+00   0.00000000e+00   5.00000000e-01 
  0.00000000e+00   0.00000000e+00   6.00000000e-01 
  0.00000000e+00   0.00000000e+00   7.00000000e-01 
  0.00000000e+00   0.00000000e+00   8.00000000e-01 
  0.00000000e+00   0.00000000e+00   9.00000000e-01 
  0.00000000e+00   1.00000000e-01   0.00000000e+00 
  0.00000000e+00   1.00000000e-01   1.00000000e-01 
  0.00000000e+00   1.00000000e-01   2.00000000e-01 
  0.00000000e+00   1.00000000e-01   3.00000000e-01 
  0.00000000e+00   1.00000000e-01   4.00000000e-01 
  0.00000000e+00   1.00000000e-01   5.00000000e-01 
  0.00000000e+00   1.00000000e-01   6.00000000e-01 
  0.00000000e+00   1.00000000e-01   7.00000000e-01 
  0.00000000e+00   1.00000000e-01   8.00000000e-01 
  0.00000000e+00   1.00000000e-01   9.00000000e-01 
  0.00000000e+00   2.00000000e-01   0.00000000e+00 
  0.00000000e+00   2.00000000e-01   1.00000000e-01 
  0.00000000e+00   2.00000000e-01   2.00000000e-01 
  0.00000000e+00   2.00000000e-01   3.00000000e-01 
  0.00000000e+00   2.00000000e-01   4.00000000e-01 
  0.00000000e+00   2.00000000e-01   5.00000000e-01 
  0.00000000e+00   2.00000000e-01   6.00000000e-01 
  0.00000000e+00   2.00000000e-01   7.00000000e-01 
  0.00000000e+00   2.00000000e-01   8.00000000e-01 
  0.00000000e+00   2.00000000e-01   9.00000000e-01 
  0.00000000e+00   3.00000000e-01   0.00000000e+00 
  0.00000000e+00   3.00000000e-01   1.00000000e-01 
  0.00000000e+00   3.00000000e-01   2.00000000e-01 
  0.00000000e+00   3.00000000e-01   3.00000000e-01 
  0.00000000e+00   3.00000000e-01   4.00000000e-01 
  0.00000000e+00   3.00000000e-01   5.00000000e-01 
  0.00000000e+00   3.00000000e-01   6.00000000e-01 
  0.00000000e+00   3.00000000e-01   7.00000000e-01 
  0.00000000e+00   3.00000000e-01   8.00000000e-01 
  0.00000000e+00   3.00000000e-01   9.00000000e-01 
  0.00000000e+00   4.00000000e-01   0.00000000e+00 
  0.00000000e+00   4.00000000e-01   1.00000000e-01 
  0.00000000e+00   4.00000000e-01   2.00000000e-01 
  0.00000000e+00   4.00000000e-01   3.00000000e-01 
  0.00000000e+00   4.00000000e-01   4.00000000e-01 
  0.00000000e+00   4.00000000e-01   5.00000000e-01 
  0.00000000e+00   4.00000000e-01   6.00000000e-01 
  0.00000000e+00   4.00000000e-01   7.00000000e-01 
  0.00000000e+00   4.00000000e-01   8.00000000e-01 
  0.00000000e+00   4.00000000e-01   9.00000000e-01 
  0.00000000e+00   5.00000000e-01   0.00000000e+00 
  0.00000000e+00   5.00000000e-01   1.00000000e-01 
  0.00000000e+00   5.00000000e-01   2.00000000e-01 
  0.00000000e+00   5.00000000e-01   3.00000000e-01 
  0.00000000e+00   5.00000000e-01   4.00000000e-01 
  0.00000000e+00   5.00000000e-01   5.00000000e-01 
  0.00000000e+00   5.00000000e-01   6.00000000e-01 
  0.00000000e+00   5.00000000e-01   7.00000000e-01 
  0.00000000e+00   5.00000000e-01   8.00000000e-01 
  0.00000000e+00   5.00000000e-01   9.00000000e-01 
  0.00000000e+00   6.00000000e-01   0.00000000e+00 
  0.00000000e+00   6.00000000e-01   1.00000000e-01 
  0.00000000e+00   6.00000000e-01   2.00000000e-01 
  0.00000000e+00   6.00000000e-01   3.00000000e-01 
  0.00000000e+00   6.00000000e-01   4.00000000e-01 
  0.00000000e+00   6.00000000e-01   5.00000000e-01 
  0.00000000e+00   6.00000000e-01   6.00000000e-01 
  0.00000000e+00   6.00000000e-01   7.00000000e-01 
  0.00000000e+00   6.00000000e-01   8.00000000e-01 
  0.00000000e+00   6.00000000e-01   9.00000000e-01 
  0.00000000e+00   7.00000000e-01   0.00000000e+00 
  0.00000000e+00   7.00000000e-01   1.00000000e-01 
  0.00000000e+00   7.00000000e-01   2.00000000e-01 
  0.00000000e+00   7.00000000e-01   3.00000000e-01 
  0.00000000e+00   7.00000000e-01   4.00000000e-01 
  0.00000000e+00   7.00000000e-01   5.00000000e-01 
  0.00000000e+00   7.00000000e-01   6.00000000e-01 
  0.00000000e+00   7.00000000e-01   7.00000000e-01 
  0.00000000e+00   7.00000000e-01   8.00000000e-01 
  0.00000000e+00   7.00000000e-01   9.00000000e-01 
  0.00000000e+00   8.00000000e-01   0.00000000e+00 
  0.00000000e+00   8.00000000e-01   1.00000000e-01 
  0.00000000e+00   8.00000000e-01   2.00000000e-01 
  0.00000000e+00   8.00000000e-01   3.00000000e-01 
  0.00000000e+00   8.00000000e-01   4.00000000e-01 
  0.00000000e+00   8.00000000e-01   5.00000000e-01 
  0.00000000e+00   8.00000000e-01   6.00000000e-01 
  0.00000000e+00   8.00000000e-01   7.00000000e-01 
  0.00000000e+00   8.00000000e-01   8.00000000e-01 
  0.00000000e+00   8.00000000e-01   9.00000000e-01 
  0.00000000e+00   9.00000000e-01   0.00000000e+00 
  0.00000000e+00   9.00000000e-01   1.00000000e-01 
  0.00000000e+00   9.00000000e-01   2.00000000e-01 
  0.00000000e+00   9.00000000e-01   3.00000000e-01 
  0.00000000e+00   9.00000000e-01   4.00000000e-01 
  0.00000000e+00   9.00000000e-01   5.00000000e-01 
  0.00000000e+00   9.00000000e-01   6.00000000e-01 
  0.00000000e+00   9.00000000e-01   7.00000000e-01 
  0.00000000e+00   9.00000000e-01   8.00000000e-01 
  0.00000000e+00   9.00000000e-01   9.00000000e-01 
  1.00000000e-01   0.00000000e+00   0.00000000e+00 
  1.00000000e-01   0.00000000e+00   1.00000000e-01 
  1.00000000e-01   0.00000000e+00   2.00000000e-01 
  1.00000000e-01   0.00000000e+00   3.00000000e-01 
  1.00000000e-01   0.00000000e+00   4.00000000e-01 
  1.00000000e-01   0.00000000e+00   5.00000000e-01 
  1.00000000e-01   0.00000000e+00   6.00000000e-01 
  1.00000000e-01   0.00000000e+00   7.00000000e-01 
  1.00000000e-01   0.00000000e+00   8.00000000e-01 
  1.00000000e-01   0.00000000e+00   9.00000000e-01 
  1.00000000e-01   1.00000000e-01   0.00000000e+00 
  1.00000000e-01   1.00000000e-01   1.00000000e-01 
  1.00000000e-01   1.00000000e-01   2.00000000e-01 
  1.00000000e-01   1.00000000e-01   3.00000000e-01 
  1.00000000e-01   1.00000000e-01   4.00000000e-01 
  1.00000000e-01   1.00000000e-01   5.00000000e-01 
  1.00000000e-01   1.00000000e-01   6.00000000e-01 
  1.00000000e-01   1.00000000e-01   7.00000000e-01 
  1.00000000e-01   1.00000000e-01   8.00000000e-01 
  1.00000000e-01   1.00000000e-01   9.00000000e-01 
  1.00000000e-01   2.00000000e-01   0.00000000e+00 
  1.00000000e-01   2.00000000e-01   1.00000000e-01 
  1.00000000e-01   2.00000000e-01   2.00000000e-01 
  1.00000000e-01   2.00000000e-01   3.00000000e-01 
  1.00000000e-01   2.00000000e-01   4.00000000e-01 
  1.00000000e-01   2.00000000e-01   5.00000000e-01 
  1.00000000e-01   2.00000000e-01   6.00000000e-01 
  1.00000000e-01   2.00000000e-01   7.00000000e-01 
  1.00000000e-01   2.00000000e-01   8.00000000e-01 
  1.00000000e-01   2.00000000e-01   9.00000000e-01 
  1.00000000e-01   3.00000000e-01   0.00000000e+00 
  1.00000000e-01   3.00000000e-01   1.00000000e-01 
  1.00000000e-01   3.00000000e-01   2.00000000e-01 
  1.00000000e-01   3.00000000e-01   3.00000000e-01 
  1.00000000e-01   3.00000000e-01   4.00000000e-01 
  1.00000000e-01   3.00000000e-01   5.00000000e-01 
  1.00000000e-01   3.00000000e-01   6.00000000e-01 
  1.00000000e-01   3.00000000e-01   7.00000000e-01 
  1.00000000e-01   3.00000000e-01   8.00000000e-01 
  1.00000000e-01   3.00000000e-01   9.00000000e-01 
  1.00000000e-01   4.00000000e-01   0.00000000e+00 
  1.00000000e-01   4.00000000e-01   1.00000000e-01 
  1.00000000e-01   4.00000000e-01   2.00000000e-01 
  1.00000000e-01   4.00000000e-01   3.00000000e-01 
  1.00000000e-01   4.00000000e-01   4.00000000e-01 
  1.00000000e-01   4.00000000e-01   5.00000000e-01 
  1.00000000e-01   4.00000000e-01   6.00000000e-01 
  1.00000000e-01   4.00000000e-01   7.00000000e-01 
  1.00000000e-01   4.00000000e-01   8.00000000e-01 
  1.00000000e-01   4.00000000e-01   9.00000000e-01 
  1.00000000e-01   5.00000000e-01   0.00000000e+00 
  1.00000000e-01   5.00000000e-01   1.00000000e-01 
  1.00000000e-01   5.00000000e-01   2.00000000e-01 
  1.00000000e-01   5.00000000e-01   3.00000000e-01 
  1.00000000e-01   5.00000000e-01   4.00000000e-01 
  1.00000000e-01   5.00000000e-01   5.00000000e-01 
  1.00000000e-01   5.00000000e-01   6.00000000e-01 
  1.00000000e-01   5.00000000e-01   7.00000000e-01 
  1.00000000e-01   5.00000000e-01   8.00000000e-01 
  1.00000000e-01   5.00000000e-01   9.00000000e-01 
  1.00000000e-01   6.00000000e-01   0.00000000e+00 
  1.00000000e-01   6.00000000e-01   1.00000000e-01 
  1.00000000e-01   6.00000000e-01   2.00000000e-01 
  1.00000000e-01   6.00000000e-01   3.00000000e-01 
  1.00000000e-01   6.00000000e-01   4.00000000e-01 
  1.00000000e-01   6.00000000e-01   5.00000000e-01 
  1.00000000e-01   6.00000000e-01   6.00000000e-01 
  1.00000000e-01   6.00000000e-01   7.00000000e-01 
  1.00000000e-01   6.00000000e-01   8.00000000e-01 
  1.00000000e-01   6.00000000e-01   9.00000000e-01 
  1.00000000e-01   7.00000000e-01   0.00000000e+00 
  1.00000000e-01   7.00000000e-01   1.00000000e-01 
  1.00000000e-01   7.00000000e-01   2.00000000e-01 
  1.00000000e-01   7.00000000e-01   3.00000000e-01 
  1.00000000e-01   7.00000000e-01   4.00000000e-01 
  1.00000000e-01   7.00000000e-01   5.00000000e-01 
  1.00000000e-01   7.00000000e-01   6.00000000e-01 
  1.00000000e-01   7.00000000e-01   7.00000000e-01 
  1.00000000e-01   7.00000000e-01   8.00000000e-01 
  1.00000000e-01   7.00000000e-01   9.00000000e-01 
  1.00000000e-01   8.00000000e-01   0.00000000e+00 
  1.00000000e-01   8.00000000e-01   1.00000000e-01 
  1.00000000e-01   8.00000000e-01   2.00000000e-01 
  1.00000000e-01   8.00000000e-01   3.00000000e-01 
  1.00000000e-01   8.00000000e-01   4.00000000e-01 
  1.00000000e-01   8.00000000e-01   5.00000000e-01 
  1.00000000e-01   8.00000000e-01   6.00000000e-01 
  1.00000000e-01   8.00000000e-01   7.00000000e-01 
  1.00000000e-01   8.00000000e-01   8.00000000e-01 
[...]
POINT_DATA   1000
FIELD solution 1
u 3   1000 DOUBLE
   -2.55350489e-04     5.23006944e-05     4.76569429e-05 
   -2.52001384e-04     5.11844507e-05     3.57068670e-05 
   -2.54785036e-04     5.29776609e-05     3.00540310e-05 
   -2.56137108e-04     5.61497581e-05     1.89802464e-05 
   -2.58347148e-04     5.70856928e-05     7.16719692e-06 
   -2.58347278e-04     5.70872731e-05    -7.16907885e-06 
   -2.56137060e-04     5.61498895e-05    -1.89827339e-05 
   -2.54786443e-04     5.29784145e-05    -3.00563105e-05 
   -2.52003289e-04     5.11828796e-05    -3.57083327e-05 
   -2.55298889e-04     5.22739728e-05    -4.76499169e-05 
   -2.50899002e-04     3.50329382e-05     5.08101548e-05 
   -2.43707977e-04     3.70931789e-05     3.68649698e-05 
   -2.47382646e-04     3.80394680e-05     2.91536823e-05 
   -2.48519662e-04     4.08732042e-05     1.85431350e-05 
   -2.50694121e-04     4.20803033e-05     7.10471528e-06 
   -2.50694244e-04     4.20805107e-05    -7.10879600e-06 
   -2.48520010e-04     4.08743932e-05    -1.85469345e-05 
   -2.47383944e-04     3.80393666e-05    -2.91580413e-05 
   -2.43708693e-04     3.71049042e-05    -3.68772307e-05 
   -2.50901219e-04     3.50329278e-05    -5.08083603e-05 
   -2.54186570e-04     2.92765330e-05     5.27209458e-05 
   -2.47276403e-04     2.92737069e-05     3.77382405e-05 
   -2.49101820e-04     3.23000856e-05     3.23343179e-05 
   -2.49823733e-04     3.27437045e-05     2.00600451e-05 
   -2.51595654e-04     3.40749617e-05     7.32669475e-06 
   -2.51595602e-04     3.40751319e-05    -7.33167110e-06 
   -2.49823836e-04     3.27427460e-05    -2.00650236e-05 
   -2.49101516e-04     3.23112774e-05    -3.23476756e-05 
   -2.47277779e-04     2.92756442e-05    -3.77384023e-05 
   -2.54188335e-04     2.92752498e-05    -5.27215052e-05 
   -2.56119360e-04     1.89905369e-05     5.61418804e-05 
   -2.48513399e-04     1.85337088e-05     4.07880603e-05 
   -2.49827120e-04     1.99967091e-05     3.26462102e-05 
   -2.49614521e-04     2.12057396e-05     2.11163883e-05 
   -2.51646419e-04     2.12791908e-05     7.69253080e-06 
   -2.51646459e-04     2.12782903e-05    -7.69855353e-06 
   -2.49614000e-04     2.12159056e-05    -2.11320934e-05 
   -2.49827104e-04     1.99970345e-05    -3.26479787e-05 
   -2.48513653e-04     1.85324376e-05    -4.07894080e-05 
   -2.56119050e-04     1.89886563e-05    -5.61423622e-05 
   -2.58730822e-04     7.11306183e-06     5.70237164e-05 
   -2.50778658e-04     7.10409670e-06     4.19989143e-05 
   -2.51665610e-04     7.22280155e-06     3.39523615e-05 
   -2.51689664e-04     7.71574582e-06     2.09461254e-05 
   -2.53412704e-04     7.84362443e-06     7.66179854e-06 
   -2.53412448e-04     7.85435852e-06    -7.67903902e-06 
   -2.51689424e-04     7.71539490e-06    -2.09513004e-05 
   -2.51665344e-04     7.22193958e-06    -3.39551913e-05 
   -2.50778376e-04     7.10403164e-06    -4.19998542e-05 
   -2.58730189e-04     7.11055180e-06    -5.70252296e-05 
   -2.58730822e-04    -7.11306183e-06     5.70237164e-05 
   -2.50778658e-04    -7.10409670e-06     4.19989143e-05 
   -2.51665610e-04    -7.22280155e-06     3.39523615e-05 
   -2.51689664e-04    -7.71574582e-06     2.09461254e-05 
   -2.53412704e-04    -7.84362443e-06     7.66179854e-06 
   -2.53412448e-04    -7.85435852e-06    -7.67903902e-06 
   -2.51689424e-04    -7.71539490e-06    -2.09513004e-05 
   -2.51665344e-04    -7.22193958e-06    -3.39551913e-05 
   -2.50778376e-04    -7.10403164e-06    -4.19998542e-05 
   -2.58730189e-04    -7.11055180e-06    -5.70252296e-05 
   -2.56119360e-04    -1.89905369e-05     5.61418804e-05 
   -2.48513399e-04    -1.85337088e-05     4.07880603e-05 
   -2.49827120e-04    -1.99967091e-05     3.26462102e-05 
   -2.49614521e-04    -2.12057396e-05     2.11163883e-05 
   -2.51646419e-04    -2.12791908e-05     7.69253080e-06 
   -2.51646459e-04    -2.12782903e-05    -7.69855353e-06 
   -2.49614000e-04    -2.12159056e-05    -2.11320934e-05 
   -2.49827104e-04    -1.99970345e-05    -3.26479787e-05 
   -2.48513653e-04    -1.85324376e-05    -4.07894080e-05 
   -2.56119050e-04    -1.89886563e-05    -5.61423622e-05 
   -2.54186570e-04    -2.92765330e-05     5.27209458e-05 
   -2.47276403e-04    -2.92737069e-05     3.77382405e-05 
   -2.49101820e-04    -3.23000856e-05     3.23343179e-05 
   -2.49823733e-04    -3.27437045e-05     2.00600451e-05 
   -2.51595654e-04    -3.40749617e-05     7.32669475e-06 
   -2.51595602e-04    -3.40751319e-05    -7.33167110e-06 
   -2.49823836e-04    -3.27427460e-05    -2.00650236e-05 
   -2.49101516e-04    -3.23112774e-05    -3.23476756e-05 
   -2.47277779e-04    -2.92756442e-05    -3.77384023e-05 
   -2.54188335e-04    -2.92752498e-05    -5.27215052e-05 
   -2.50899002e-04    -3.50329382e-05     5.08101548e-05 
   -2.43707977e-04    -3.70931789e-05     3.68649698e-05 
   -2.47382646e-04    -3.80394680e-05     2.91536823e-05 
   -2.48519662e-04    -4.08732042e-05     1.85431350e-05 
   -2.50694121e-04    -4.20803033e-05     7.10471528e-06 
   -2.50694244e-04    -4.20805107e-05    -7.10879600e-06 
   -2.48520010e-04    -4.08743932e-05    -1.85469345e-05 
   -2.47383944e-04    -3.80393666e-05    -2.91580413e-05 
   -2.43708693e-04    -3.71049042e-05    -3.68772307e-05 
   -2.50901219e-04    -3.50329278e-05    -5.08083603e-05 
   -2.55350489e-04    -5.23006944e-05     4.76569429e-05 
   -2.52001384e-04    -5.11844507e-05     3.57068670e-05 
   -2.54785036e-04    -5.29776609e-05     3.00540310e-05 
   -2.56137108e-04    -5.61497581e-05     1.89802464e-05 
   -2.58347148e-04    -5.70856928e-05     7.16719692e-06 
   -2.58347278e-04    -5.70872731e-05    -7.16907885e-06 
   -2.56137060e-04    -5.61498895e-05    -1.89827339e-05 
   -2.54786443e-04    -5.29784145e-05    -3.00563105e-05 
   -2.52003289e-04    -5.11828796e-05    -3.57083327e-05 
   -2.55298889e-04    -5.22739728e-05    -4.76499169e-05 
   -2.12880374e-04     4.99402721e-05     5.00525146e-05 
   -2.12111571e-04     4.79653927e-05     4.08908695e-05 
   -2.13527792e-04     4.99473380e-05     3.21882939e-05 
   -2.15136374e-04     5.23053242e-05     2.14530390e-05 
   -2.15729776e-04     5.33533587e-05     7.72582055e-06 
   -2.15729662e-04     5.33542589e-05    -7.72481262e-06 
   -2.15136678e-04     5.23060828e-05    -2.14523661e-05 
   -2.13529221e-04     4.99482466e-05    -3.21870406e-05 
   -2.12111028e-04     4.79639714e-05    -4.08908098e-05 
   -2.12863569e-04     4.99359928e-05    -5.00483376e-05 
   -2.11158844e-04     4.15276237e-05     4.78773779e-05 
   -2.09434049e-04     4.23277103e-05     4.24456819e-05 
   -2.11543815e-04     4.25483243e-05     3.26654433e-05 
   -2.12496476e-04     4.47388686e-05     2.08825677e-05 
   -2.13017139e-04     4.57582780e-05     7.53306496e-06 
   -2.13017100e-04     4.57585430e-05    -7.53340107e-06 
   -2.12496897e-04     4.47396824e-05    -2.08826017e-05 
   -2.11543145e-04     4.25482512e-05    -3.26659828e-05 
   -2.09439053e-04     4.23237412e-05    -4.24420195e-05 
   -2.11158547e-04     4.15267229e-05    -4.78759407e-05 
   -2.13343896e-04     3.27790831e-05     4.99043122e-05 
   -2.11470114e-04     3.28129043e-05     4.26156475e-05 
   -2.12060137e-04     3.49126148e-05     3.49656952e-05 
   -2.12773802e-04     3.49178707e-05     2.19718182e-05 
   -2.13215951e-04     3.61709894e-05     7.75743885e-06 
   -2.13216112e-04     3.61711288e-05    -7.75866307e-06 
   -2.12773377e-04     3.49174356e-05    -2.19738033e-05 
   -2.12062134e-04     3.49129642e-05    -3.49670443e-05 
   -2.11469269e-04     3.28123599e-05    -4.26155860e-05 
   -2.13345298e-04     3.27763503e-05    -4.99051191e-05 
   -2.15289996e-04     2.18744982e-05     5.23047317e-05 
   -2.12459152e-04     2.08748492e-05     4.48447161e-05 
   -2.12813228e-04     2.19977407e-05     3.49577362e-05 
   -2.12937782e-04     2.31515473e-05     2.31700351e-05 
   -2.13535208e-04     2.31673694e-05     8.20002553e-06 
   -2.13534959e-04     2.31669351e-05    -8.20241387e-06 
   -2.12938442e-04     2.31523699e-05    -2.31733630e-05 
   -2.12812746e-04     2.19975485e-05    -3.49585768e-05 
   -2.12459327e-04     2.08727259e-05    -4.48455070e-05 
   -2.15289780e-04     2.18717764e-05    -5.23056564e-05 
   -2.16016625e-04     7.83124640e-06     5.33538093e-05 
   -2.13086423e-04     7.59838195e-06     4.58234143e-05 
   -2.13273181e-04     7.71117308e-06     3.62256630e-05 
   -2.13548321e-04     8.21005908e-06     2.31349988e-05 
   -2.13939686e-04     8.18743376e-06     8.17105380e-06 
   -2.13939888e-04     8.18881848e-06    -8.17563116e-06 
   -2.13548397e-04     8.20981380e-06    -2.31375453e-05 
   -2.13273588e-04     7.71046855e-06    -3.62269222e-05 
   -2.13086345e-04     7.59777084e-06    -4.58239295e-05 
   -2.16016709e-04     7.82936699e-06    -5.33549272e-05 
   -2.16016625e-04    -7.83124640e-06     5.33538093e-05 
   -2.13086423e-04    -7.59838195e-06     4.58234143e-05 
   -2.13273181e-04    -7.71117308e-06     3.62256630e-05 
   -2.13548321e-04    -8.21005908e-06     2.31349988e-05 
   -2.13939686e-04    -8.18743376e-06     8.17105380e-06 
   -2.13939888e-04    -8.18881848e-06    -8.17563116e-06 
   -2.13548397e-04    -8.20981380e-06    -2.31375453e-05 
   -2.13273588e-04    -7.71046855e-06    -3.62269222e-05 
   -2.13086345e-04    -7.59777084e-06    -4.58239295e-05 
   -2.16016709e-04    -7.82936699e-06    -5.33549272e-05 
   -2.15289996e-04    -2.18744982e-05     5.23047317e-05 
   -2.12459152e-04    -2.08748492e-05     4.48447161e-05 
   -2.12813228e-04    -2.19977407e-05     3.49577362e-05 
   -2.12937782e-04    -2.31515473e-05     2.31700351e-05 
   -2.13535208e-04    -2.31673694e-05     8.20002553e-06 
   -2.13534959e-04    -2.31669351e-05    -8.20241387e-06 
   -2.12938442e-04    -2.31523699e-05    -2.31733630e-05 
   -2.12812746e-04    -2.19975485e-05    -3.49585768e-05 
   -2.12459327e-04    -2.08727259e-05    -4.48455070e-05 
   -2.15289780e-04    -2.18717764e-05    -5.23056564e-05 
   -2.13343896e-04    -3.27790831e-05     4.99043122e-05 
   -2.11470114e-04    -3.28129043e-05     4.26156475e-05 
   -2.12060137e-04    -3.49126148e-05     3.49656952e-05 
   -2.12773802e-04    -3.49178707e-05     2.19718182e-05 
   -2.13215951e-04    -3.61709894e-05     7.75743885e-06 
   -2.13216112e-04    -3.61711288e-05    -7.75866307e-06 
   -2.12773377e-04    -3.49174356e-05    -2.19738033e-05 
   -2.12062134e-04    -3.49129642e-05    -3.49670443e-05 
   -2.11469269e-04    -3.28123599e-05    -4.26155860e-05 
   -2.13345298e-04    -3.27763503e-05    -4.99051191e-05 
   -2.11158844e-04    -4.15276237e-05     4.78773779e-05 
   -2.09434049e-04    -4.23277103e-05     4.24456819e-05 
   -2.11543815e-04    -4.25483243e-05     3.26654433e-05 
   -2.12496476e-04    -4.47388686e-05     2.08825677e-05 
   -2.13017139e-04    -4.57582780e-05     7.53306496e-06 
   -2.13017100e-04    -4.57585430e-05    -7.53340107e-06 
   -2.12496897e-04    -4.47396824e-05    -2.08826017e-05 
   -2.11543145e-04    -4.25482512e-05    -3.26659828e-05 
   -2.09439053e-04    -4.23237412e-05    -4.24420195e-05 
   -2.11158547e-04    -4.15267229e-05    -4.78759407e-05 
   -2.12880374e-04    -4.99402721e-05     5.00525146e-05 
   -2.12111571e-04    -4.79653927e-05     4.08908695e-05 
   -2.13527792e-04    -4.99473380e-05     3.21882939e-05 
   -2.15136374e-04    -5.23053242e-05     2.14530390e-05 
   -2.15729776e-04    -5.33533587e-05     7.72582055e-06 
   -2.15729662e-04    -5.33542589e-05    -7.72481262e-06 
   -2.15136678e-04    -5.23060828e-05    -2.14523661e-05 
   -2.13529221e-04    -4.99482466e-05    -3.21870406e-05 
   -2.12111028e-04    -4.79639714e-05    -4.08908098e-05 
   -2.12863569e-04    -4.99359928e-05    -5.00483376e-05 
   -1.70245199e-04     5.05831576e-05     5.06922660e-05 
   -1.67392587e-04     4.75961895e-05     3.86964362e-05 
   -1.66771019e-04     5.02710695e-05     2.91662361e-05 
   -1.68420018e-04     5.19573939e-05     1.97655643e-05 
   -1.67782599e-04     5.33278428e-05     6.86945554e-06 
   -1.67783621e-04     5.33287160e-05    -6.86980368e-06 
   -1.68420840e-04     5.19580653e-05    -1.97656651e-05 
   -1.66770326e-04     5.02709855e-05    -2.91666872e-05 
   -1.67391379e-04     4.75955127e-05    -3.86970180e-05 
   -1.70232657e-04     5.05816556e-05    -5.06913164e-05 
   -1.66764828e-04     3.87652244e-05     4.74800496e-05 
   -1.63213666e-04     4.12754338e-05     4.11826067e-05 
   -1.62296976e-04     4.03357778e-05     2.95988800e-05 
   -1.63382363e-04     4.19045447e-05     1.98219370e-05 
   -1.62306698e-04     4.28101739e-05     6.97305390e-06 
   -1.62306988e-04     4.28103852e-05    -6.97375073e-06 
   -1.63382029e-04     4.19049260e-05    -1.98231597e-05 
   -1.62297385e-04     4.03355657e-05    -2.95982127e-05 
   -1.63217590e-04     4.12741595e-05    -4.11813062e-05 
   -1.66763780e-04     3.87657358e-05    -4.74794965e-05 
   -1.66105305e-04     2.91993281e-05     5.02867198e-05 
   -1.62160014e-04     2.94611060e-05     4.02460026e-05 
   -1.59821184e-04     3.18626402e-05     3.18066914e-05 
   -1.61274378e-04     3.07763652e-05     2.04705538e-05 
   -1.59985354e-04     3.17724937e-05     7.23245334e-06 
   -1.59985224e-04     3.17725505e-05    -7.23409961e-06 
   -1.61274756e-04     3.07761203e-05    -2.04710750e-05 
   -1.59823460e-04     3.18619386e-05    -3.18068884e-05 
   -1.62160224e-04     2.94596518e-05    -4.02460129e-05 
   -1.66104787e-04     2.91985203e-05    -5.02865157e-05 
   -1.68395051e-04     2.03276810e-05     5.19699941e-05 
   -1.63364078e-04     1.99480861e-05     4.18970767e-05 
   -1.61250379e-04     2.05577282e-05     3.07797113e-05 
   -1.62523149e-04     2.19510896e-05     2.19368284e-05 
   -1.61560108e-04     2.13494895e-05     7.47570123e-06 
   -1.61560768e-04     2.13489552e-05    -7.47768089e-06 
   -1.62524953e-04     2.19520533e-05    -2.19396784e-05 
   -1.61250507e-04     2.05569344e-05    -3.07806015e-05 
   -1.63362964e-04     1.99478466e-05    -4.18974355e-05 
   -1.68395344e-04     2.03263789e-05    -5.19707431e-05 
   -1.67875108e-04     7.02481707e-06     5.33351920e-05 
   -1.62401173e-04     7.02563563e-06     4.28329471e-05 
   -1.60006383e-04     7.20124411e-06     3.18668354e-05 
   -1.61559929e-04     7.48533866e-06     2.12930300e-05 
   -1.60465906e-04     7.61271526e-06     7.60833817e-06 
   -1.60466893e-04     7.61453761e-06    -7.61194892e-06 
   -1.61560554e-04     7.48447834e-06    -2.12948823e-05 
   -1.60006312e-04     7.20142519e-06    -3.18679547e-05 
   -1.62401434e-04     7.02562866e-06    -4.28336792e-05 
   -1.67875628e-04     7.02374146e-06    -5.33362544e-05 
   -1.67875108e-04    -7.02481707e-06     5.33351920e-05 
   -1.62401173e-04    -7.02563563e-06     4.28329471e-05 
   -1.60006383e-04    -7.20124411e-06     3.18668354e-05 
   -1.61559929e-04    -7.48533866e-06     2.12930300e-05 
   -1.60465906e-04    -7.61271526e-06     7.60833817e-06 
   -1.60466893e-04    -7.61453761e-06    -7.61194892e-06 
   -1.61560554e-04    -7.48447834e-06    -2.12948823e-05 
   -1.60006312e-04    -7.20142519e-06    -3.18679547e-05 
   -1.62401434e-04    -7.02562866e-06    -4.28336792e-05 
   -1.67875628e-04    -7.02374146e-06    -5.33362544e-05 
   -1.68395051e-04    -2.03276810e-05     5.19699941e-05 
   -1.63364078e-04    -1.99480861e-05     4.18970767e-05 
   -1.61250379e-04    -2.05577282e-05     3.07797113e-05 
   -1.62523149e-04    -2.19510896e-05     2.19368284e-05 
   -1.61560108e-04    -2.13494895e-05     7.47570123e-06 
   -1.61560768e-04    -2.13489552e-05    -7.47768089e-06 
   -1.62524953e-04    -2.19520533e-05    -2.19396784e-05 
   -1.61250507e-04    -2.05569344e-05    -3.07806015e-05 
   -1.63362964e-04    -1.99478466e-05    -4.18974355e-05 
   -1.68395344e-04    -2.03263789e-05    -5.19707431e-05 
   -1.66105305e-04    -2.91993281e-05     5.02867198e-05 
   -1.62160014e-04    -2.94611060e-05     4.02460026e-05 
   -1.59821184e-04    -3.18626402e-05     3.18066914e-05 
   -1.61274378e-04    -3.07763652e-05     2.04705538e-05 
   -1.59985354e-04    -3.17724937e-05     7.23245334e-06 
   -1.59985224e-04    -3.17725505e-05    -7.23409961e-06 
   -1.61274756e-04    -3.07761203e-05    -2.04710750e-05 
   -1.59823460e-04    -3.18619386e-05    -3.18068884e-05 
   -1.62160224e-04    -2.94596518e-05    -4.02460129e-05 
   -1.66104787e-04    -2.91985203e-05    -5.02865157e-05 
   -1.66764828e-04    -3.87652244e-05     4.74800496e-05 
   -1.63213666e-04    -4.12754338e-05     4.11826067e-05 
   -1.62296976e-04    -4.03357778e-05     2.95988800e-05 
   -1.63382363e-04    -4.19045447e-05     1.98219370e-05 
   -1.62306698e-04    -4.28101739e-05     6.97305390e-06 
   -1.62306988e-04    -4.28103852e-05    -6.97375073e-06 
   -1.63382029e-04    -4.19049260e-05    -1.98231597e-05 
   -1.62297385e-04    -4.03355657e-05    -2.95982127e-05 
   -1.63217590e-04    -4.12741595e-05    -4.11813062e-05 
   -1.66763780e-04    -3.87657358e-05    -4.74794965e-05 
   -1.70245199e-04    -5.05831576e-05     5.06922660e-05 
   -1.67392587e-04    -4.75961895e-05     3.86964362e-05 
   -1.66771019e-04    -5.02710695e-05     2.91662361e-05 
   -1.68420018e-04    -5.19573939e-05     1.97655643e-05 
   -1.67782599e-04    -5.33278428e-05     6.86945554e-06 
   -1.67783621e-04    -5.33287160e-05    -6.86980368e-06 
   -1.68420840e-04    -5.19580653e-05    -1.97656651e-05 
   -1.66770326e-04    -5.02709855e-05    -2.91666872e-05 
   -1.67391379e-04    -4.75955127e-05    -3.86970180e-05 
   -1.70232657e-04    -5.05816556e-05    -5.06913164e-05 
   -1.06770415e-04     5.32566446e-05     5.42481211e-05 
   -1.03340046e-04     5.01616879e-05     3.61293306e-05 
   -1.02770929e-04     5.29387975e-05     2.44029896e-05 
   -1.02288628e-04     5.37908680e-05     1.52008428e-05 
   -1.02395184e-04     5.46232067e-05     4.49613818e-06 
   -1.02395663e-04     5.46234930e-05    -4.49684360e-06 
   -1.02288376e-04     5.37908859e-05    -1.52023340e-05 
   -1.02769935e-04     5.29390474e-05    -2.44042782e-05 
   -1.03338483e-04     5.01618556e-05    -3.61302907e-05 
   -1.06760279e-04     5.32569528e-05    -5.42483696e-05 
   -1.02141569e-04     3.60163721e-05     5.01730945e-05 
   -9.88116110e-05     4.00006478e-05     4.01319340e-05 
   -9.74297756e-05     3.73753563e-05     2.51789259e-05 
   -9.63852599e-05     3.83619853e-05     1.53535170e-05 
   -9.59279198e-05     3.87972993e-05     4.89269027e-06 
   -9.59277411e-05     3.87973958e-05    -4.89366121e-06 
   -9.63860825e-05     3.83621865e-05    -1.53540574e-05 
   -9.74299690e-05     3.73755561e-05    -2.51792874e-05 
   -9.88139456e-05     4.00006112e-05    -4.01319087e-05 
   -1.02140072e-04     3.60173023e-05    -5.01732479e-05 
   -1.02387926e-04     2.42725388e-05     5.29774234e-05 
   -9.73785558e-05     2.51481676e-05     3.73598847e-05 
   -9.61960922e-05     2.77492013e-05     2.76642939e-05 
   -9.51882518e-05     2.55186448e-05     1.62604774e-05 
   -9.47962390e-05     2.61234820e-05     4.87044611e-06 
   -9.47970459e-05     2.61234280e-05    -4.87143735e-06 
   -9.51891474e-05     2.55186917e-05    -1.62612014e-05 
   -9.61985118e-05     2.77493228e-05    -2.76650037e-05 
   -9.73786177e-05     2.51480527e-05    -3.73601617e-05 
   -1.02386905e-04     2.42731781e-05    -5.29775639e-05 
   -1.02016190e-04     1.58446488e-05     5.37897324e-05 
   -9.64391447e-05     1.55135133e-05     3.83385533e-05 
   -9.51791689e-05     1.63272547e-05     2.55306010e-05 
   -9.43055592e-05     1.76325511e-05     1.76187709e-05 
   -9.41844463e-05     1.61770047e-05     5.18702115e-06 
   -9.41848234e-05     1.61770160e-05    -5.18786088e-06 
   -9.43079564e-05     1.76323613e-05    -1.76204298e-05 
   -9.51796230e-05     1.63268118e-05    -2.55314364e-05 
   -9.64392837e-05     1.55128780e-05    -3.83387652e-05 
   -1.02015815e-04     1.58448723e-05    -5.37900017e-05 
   -1.02391521e-04     4.86469160e-06     5.46271199e-05 
   -9.60110446e-05     5.02628433e-06     3.88477955e-05 
   -9.48236839e-05     4.89203661e-06     2.61347906e-05 