# vtk DataFile Version 2.0 
generated by Lattice Boltzmann Method time =   5.19615242e-01
ASCII 
DATASET UNSTRUCTURED_GRID

POINTS   1000 FLOAT 
  0.00000000e+00   0.00000000e+00   0.00000000e+00 
  0.00000000e+00   0.00000000e+00   1.00000000e-01 
  0.00000000e+00   0.00000000e+00   2.00000000e-01 
  0.00000000e+00   0.00000000e+00   3.00000000e-01 
  0.00000000e+00   0.00000000e+00   4.00000000e-01 
  0.00000000e+00   0.00000000e+00   5.00000000e-01 
  0.00000000e+00   0.00000000e+00   6.00000000e-01 
  0.00000000e+00   0.00000000e+00   7.00000000e-01 
  0.00000000e+00   0.00000000e+00   8.00000000e-01 
  0.00000000e+00   0.00000000e+00   9.00000000e-01 
  0.00000000e+00   1.00000000e-01   0.00000000e+00 
  0.00000000e+00   1.00000000e-01   1.00000000e-01 
  0.00000000e+00   1.00000000e-01   2.00000000e-01 
  0.00000000e+00   1.00000000e-01   3.00000000e-01 
  0.00000000e+00   1.00000000e-01   4.00000000e-01 
  0.00000000e+00   1.00000000e-01   5.00000000e-01 
  0.00000000e+00   1.00000000e-01   6.00000000e-01 
  0.00000000e+00   1.00000000e-01   7.00000000e-01 
  0.00000000e+00   1.00000000e-01   8.00000000e-01 
  0.00000000e+00   1.00000000e-01   9.00000000e-01 
  0.00000000e+00   2.00000000e-01   0.00000000e+00 
  0.00000000e+00   2.00000000e-01   1.00000000e-01 
  0.00000000e+00   2.00000000e-01   2.00000000e-01 
  0.00000000e+00   2.00000000e-01   3.00000000e-01 
  0.00000000e+00   2.00000000e-01   4.00000000e-01 
  0.00000000e+00   2.00000000e-01   5.00000000e-01 
  0.00000000e+00   2.00000000e-01   6.00000000e-01 
  0.00000000e+00   2.00000000e-01   7.00000000e-01 
  0.00000000e+00   2.00000000e-01   8.00000000e-01 
  0.00000000e+00   2.00000000e-01   9.00000000e-01 
  0.00000000e+00   3.00000000e-01   0.00000000e+00 
  0.00000000e+00   3.00000000e-01   1.00000000e-01 
  0.00000000e+00   3.00000000e-01   2.00000000e-01 
  0.00000000e+00   3.00000000e-01   3.00000000e-01 
  0.00000000e+00   3.00000000e-01   4.00000000e-01 
  0.00000000e+00   3.00000000e-01   5.00000000e-01 
  0.00000000e+00   3.00000000e-01   6.00000000e-01 
  0.00000000e+00   3.00000000e-01   7.00000000e-01 
  0.00000000e+00   3.00000000e-01   8.00000000e-01 
  0.00000000e+00   3.00000000e-01   9.00000000e-01 
  0.00000000e+00   4.00000000e-01   0.00000000e+00 
  0.00000000e+00   4.00000000e-01   1.00000000e-01 
  0.00000000e+00   4.00000000e-01   2.00000000e-01 
  0.00000000e+00   4.00000000e-01   3.00000000e-01 
  0.00000000e+00   4.00000000e-01   4.00000000e-01 
  0.00000000e+00   4.00000000e-01   5.00000000e-01 
  0.00000000e+00   4.00000000e-01   6.00000000e-01 
  0.00000000e+00   4.00000000e-01   7.00000000e-01 
  0.00000000e+00   4.00000000e-01   8.00000000e-01 
  0.00000000e+00   4.00000000e-01   9.00000000e-01 
  0.00000000e+00   5.00000000e-01   0.00000000e+00 
  0.00000000e+00   5.00000000e-01   1.00000000e-01 
  0.00000000e+00   5.00000000e-01   2.00000000e-01 
  0.00000000e+00   5.00000000e-01   3.00000000e-01 
  0.00000000e+00   5.00000000e-01   4.00000000e-01 
  0.00000000e+00   5.00000000e-01   5.00000000e-01 
  0.00000000e+00   5.00000000e-01   6.00000000e-01 
  0.00000000e+00   5.00000000e-01   7.00000000e-01 
  0.00000000e+00   5.00000000e-01   8.00000000e-01 
  0.00000000e+00   5.00000000e-01   9.00000000e-01 
  0.00000000e+00   6.00000000e-01   0.00000000e+00 
  0.00000000e+00   6.00000000e-01   1.00000000e-01 
  0.00000000e+00   6.00000000e-01   2.00000000e-01 
  0.00000000e+00   6.00000000e-01   3.00000000e-01 
  0.00000000e+00   6.00000000e-01   4.00000000e-01 
  0.00000000e+00   6.00000000e-01   5.00000000e-01 
  0.00000000e+00   6.00000000e-01   6.00000000e-01 
  0.00000000e+00   6.00000000e-01   7.00000000e-01 
  0.00000000e+00   6.00000000e-01   8.00000000e-01 
  0.00000000e+00   6.00000000e-01   9.00000000e-01 
  0.00000000e+00   7.00000000e-01   0.00000000e+00 
  0.00000000e+00   7.00000000e-01   1.00000000e-01 
  0.00000000e+00   7.00000000e-01   2.00000000e-01 
  0.00000000e+00   7.00000000e-01   3.00000000e-01 
  0.00000000e+00   7.00000000e-01   4.00000000e-01 
  0.00000000e+00   7.00000000e-01   5.00000000e-01 
  0.00000000e+00   7.00000000e-01   6.00000000e-01 
  0.00000000e+00   7.00000000e-01   7.00000000e-01 
  0.00000000e+00   7.00000000e-01   8.00000000e-01 
  0.00000000e+00   7.00000000e-01   9.00000000e-01 
  0.00000000e+00   8.00000000e-01   0.00000000e+00 
  0.00000000e+00   8.00000000e-01   1.00000000e-01 
  0.00000000e+00   8.00000000e-01   2.00000000e-01 
  0.00000000e+00   8.00000000e-01   3.00000000e-01 
  0.00000000e+00   8.00000000e-01   4.00000000e-01 
  0.00000000e+00   8.00000000e-01   5.00000000e-01 
  0.00000000e+00   8.00000000e-01   6.00000000e-01 
  0.00000000e+00   8.00000000e-01   7.00000000e-01 
  0.00000000e+00   8.00000000e-01   8.00000000e-01 
  0.00000000e+00   8.00000000e-01   9.00000000e-01 
  0.00000000e+00   9.00000000e-01   0.00000000e+00 
  0.00000000e+00   9.00000000e-01   1.00000000e-01 
  0.00000000e+00   9.00000000e-01   2.00000000e-01 
  0.00000000e+00   9.00000000e-01   3.00000000e-01 
  0.00000000e+00   9.00000000e-01   4.00000000e-01 
  0.00000000e+00   9.00000000e-01   5.00000000e-01 
  0.00000000e+00   9.00000000e-01   6.00000000e-01 
  0.00000000e+00   9.00000000e-01   7.00000000e-01 
  0.00000000e+00   9.00000000e-01   8.00000000e-01 
  0.00000000e+00   9.00000000e-01   9.00000000e-01 
  1.00000000e-01   0.00000000e+00   0.00000000e+00 
  1.00000000e-01   0.00000000e+00   1.00000000e-01 
  1.00000000e-01   0.00000000e+00   2.00000000e-01 
  1.00000000e-01   0.00000000e+00   3.00000000e-01 
  1.00000000e-01   0.00000000e+00   4.00000000e-01 
  1.00000000e-01   0.00000000e+00   5.00000000e-01 
  1.00000000e-01   0.00000000e+00   6.00000000e-01 
  1.00000000e-01   0.00000000e+00   7.00000000e-01 
  1.00000000e-01   0.00000000e+00   8.00000000e-01 
  1.00000000e-01   0.00000000e+00   9.00000000e-01 
  1.00000000e-01   1.00000000e-01   0.00000000e+00 
  1.00000000e-01   1.00000000e-01   1.00000000e-01 
  1.00000000e-01   1.00000000e-01   2.00000000e-01 
  1.00000000e-01   1.00000000e-01   3.00000000e-01 
  1.00000000e-01   1.00000000e-01   4.00000000e-01 
  1.00000000e-01   1.00000000e-01   5.00000000e-01 
  1.00000000e-01   1.00000000e-01   6.00000000e-01 
  1.00000000e-01   1.00000000e-01   7.00000000e-01 
  1.00000000e-01   1.00000000e-01   8.00000000e-01 
  1.00000000e-01   1.00000000e-01   9.00000000e-01 
  1.00000000e-01   2.00000000e-01   0.00000000e+00 
  1.00000000e-01   2.00000000e-01   1.00000000e-01 
  1.00000000e-01   2.00000000e-01   2.00000000e-01 
  1.00000000e-01   2.00000000e-01   3.00000000e-01 
  1.00000000e-01   2.00000000e-01   4.00000000e-01 
  1.00000000e-01   2.00000000e-01   5.00000000e-01 
  1.00000000e-01   2.00000000e-01   6.00000000e-01 
  1.00000000e-01   2.00000000e-01   7.00000000e-01 
  1.00000000e-01   2.00000000e-01   8.00000000e-01 
  1.00000000e-01   2.00000000e-01   9.00000000e-01 
  1.00000000e-01   3.00000000e-01   0.00000000e+00 
  1.00000000e-01   3.00000000e-01   1.00000000e-01 
  1.00000000e-01   3.00000000e-01   2.00000000e-01 
  1.00000000e-01   3.00000000e-01   3.00000000e-01 
  1.00000000e-01   3.00000000e-01   4.00000000e-01 
  1.00000000e-01   3.00000000e-01   5.00000000e-01 
  1.00000000e-01   3.00000000e-01   6.00000000e-01 
  1.00000000e-01   3.00000000e-01   7.00000000e-01 
  1.00000000e-01   3.00000000e-01   8.00000000e-01 
  1.00000000e-01   3.00000000e-01   9.00000000e-01 
  1.00000000e-01   4.00000000e-01   0.00000000e+00 
  1.00000000e-01   4.00000000e-01   1.00000000e-01 
  1.00000000e-01   4.00000000e-01   2.00000000e-01 
  1.00000000e-01   4.00000000e-01   3.00000000e-01 
  1.00000000e-01   4.00000000e-01   4.00000000e-01 
  1.00000000e-01   4.00000000e-01   5.00000000e-01 
  1.00000000e-01   4.00000000e-01   6.00000000e-01 
  1.00000000e-01   4.00000000e-01   7.00000000e-01 
  1.00000000e-01   4.00000000e-01   8.00000000e-01 
  1.00000000e-01   4.00000000e-01   9.00000000e-01 
  1.00000000e-01   5.00000000e-01   0.00000000e+00 
  1.00000000e-01   5.00000000e-01   1.00000000e-01 
  1.00000000e-01   5.00000000e-01   2.00000000e-01 
  1.00000000e-01   5.00000000e-01   3.00000000e-01 
  1.00000000e-01   5.00000000e-01   4.00000000e-01 
  1.00000000e-01   5.00000000e-01   5.00000000e-01 
  1.00000000e-01   5.00000000e-01   6.00000000e-01 
  1.00000000e-01   5.00000000e-01   7.00000000e-01 
  1.00000000e-01   5.00000000e-01   8.00000000e-01 
  1.00000000e-01   5.00000000e-01   9.00000000e-01 
  1.00000000e-01   6.00000000e-01   0.00000000e+00 
  1.00000000e-01   6.00000000e-01   1.00000000e-01 
  1.00000000e-01   6.00000000e-01   2.00000000e-01 
  1.00000000e-01   6.00000000e-01   3.00000000e-01 
  1.00000000e-01   6.00000000e-01   4.00000000e-01 
  1.00000000e-01   6.00000000e-01   5.00000000e-01 
  1.00000000e-01   6.00000000e-01   6.00000000e-01 
  1.00000000e-01   6.00000000e-01   7.00000000e-01 
  1.00000000e-01   6.00000000e-01   8.00000000e-01 
  1.00000000e-01   6.00000000e-01   9.00000000e-01 
  1.00000000e-01   7.00000000e-01   0.00000000e+00 
  1.00000000e-01   7.00000000e-01   1.00000000e-01 
  1.00000000e-01   7.00000000e-01   2.00000000e-01 
  1.00000000e-01   7.00000000e-01   3.00000000e-01 
  1.00000000e-01   7.00000000e-01   4.00000000e-01 
  1.00000000e-01   7.00000000e-01   5.00000000e-01 
  1.00000000e-01   7.00000000e-01   6.00000000e-01 
  1.00000000e-01   7.00000000e-01   7.00000000e-01 
  1.00000000e-01   7.00000000e-01   8.00000000e-01 
  1.00000000e-01   7.00000000e-01   9.00000000e-01 
  1.00000000e-01   8.00000000e-01   0.00000000e+00 
  1.00000000e-01   8.00000000e-01   1.00000000e-01 
  1.00000000e-01   8.00000000e-01   2.00000000e-01 
  1.00000000e-01   8.00000000e-01   3.00000000e-01 
  1.00000000e-01   8.00000000e-01   4.00000000e-01 
  1.00000000e-01   8.00000000e-01   5.00000000e-01 
  1.00000000e-01   8.00000000e-01   6.00000000e-01 
  1.00000000e-01   8.00000000e-01   7.00000000e-01 
  1.00000000e-01   8.00000000e-01   8.00000000e-01 
[...]
POINT_DATA   1000
FIELD solution 1
u 3   1000 DOUBLE
   -2.89471599e-04     5.99244010e-05     5.46637111e-05 
   -2.87205111e-04     5.80933110e-05     4.40240836e-05 
   -2.90470997e-04     5.95965847e-05     3.52131497e-05 
   -2.91050707e-04     6.12100656e-05     2.17207367e-05 
   -2.93085309e-04     6.22297207e-05     6.88089635e-06 
   -2.93085647e-04     6.22310905e-05    -6.88130172e-06 
   -2.91051106e-04     6.12097160e-05    -2.17233410e-05 
   -2.90472331e-04     5.95974632e-05    -3.52153847e-05 
   -2.87207310e-04     5.80918056e-05    -4.40275710e-05 
   -2.89418478e-04     5.98976397e-05    -5.46556813e-05 
   -2.85734689e-04     4.25768880e-05     5.77510679e-05 
   -2.78301736e-04     4.51873212e-05     4.48942676e-05 
   -2.82618629e-04     4.47694047e-05     3.45789895e-05 
   -2.83159805e-04     4.75564499e-05     2.03689877e-05 
   -2.85328481e-04     4.84014455e-05     6.72837711e-06 
   -2.85328762e-04     4.84014771e-05    -6.73191559e-06 
   -2.83160597e-04     4.75574038e-05    -2.03732400e-05 
   -2.82619860e-04     4.47685232e-05    -3.45838622e-05 
   -2.78301782e-04     4.51994558e-05    -4.49081340e-05 
   -2.85737273e-04     4.25766582e-05    -5.77492450e-05 
   -2.89921676e-04     3.52521183e-05     5.93297454e-05 
   -2.82526356e-04     3.48312153e-05     4.44967691e-05 
   -2.85462325e-04     3.72506661e-05     3.69643207e-05 
   -2.85736007e-04     3.81594129e-05     2.20967597e-05 
   -2.87527618e-04     3.90528050e-05     7.33681956e-06 
   -2.87527751e-04     3.90531952e-05    -7.34155541e-06 
   -2.85736363e-04     3.81584786e-05    -2.21022993e-05 
   -2.85461972e-04     3.72612208e-05    -3.69797619e-05 
   -2.82527604e-04     3.48313572e-05    -4.44980285e-05 
   -2.89923206e-04     3.52489914e-05    -5.93300948e-05 
   -2.90869877e-04     2.15045031e-05     6.11227356e-05 
   -2.83118572e-04     2.06495785e-05     4.73864535e-05 
   -2.85722110e-04     2.20370703e-05     3.78952227e-05 
   -2.84646634e-04     2.32628174e-05     2.31579725e-05 
   -2.86512693e-04     2.35075497e-05     7.84457814e-06 
   -2.86512776e-04     2.35068315e-05    -7.84950923e-06 
   -2.84646248e-04     2.32728568e-05    -2.31735773e-05 
   -2.85722290e-04     2.20370154e-05    -3.78988776e-05 
   -2.83119137e-04     2.06483936e-05    -4.73890606e-05 
   -2.90869891e-04     2.15022910e-05    -6.11233197e-05 
   -2.93594930e-04     7.19466911e-06     6.22160251e-05 
   -2.85438728e-04     6.86938564e-06     4.83358737e-05 
   -2.87619634e-04     7.39844184e-06     3.89470158e-05 
   -2.86574709e-04     7.82648982e-06     2.33139106e-05 
   -2.88082154e-04     8.05383549e-06     7.88219018e-06 
   -2.88081953e-04     8.06370851e-06    -7.89668862e-06 
   -2.86574592e-04     7.82636101e-06    -2.33182034e-05 
   -2.87619521e-04     7.39823484e-06    -3.89510180e-05 
   -2.85438611e-04     6.86971293e-06    -4.83385831e-05 
   -2.93594375e-04     7.19251743e-06    -6.22178261e-05 
   -2.93594930e-04    -7.19466911e-06     6.22160251e-05 
   -2.85438728e-04    -6.86938564e-06     4.83358737e-05 
   -2.87619634e-04    -7.39844184e-06     3.89470158e-05 
   -2.86574709e-04    -7.82648982e-06     2.33139106e-05 
   -2.88082154e-04    -8.05383549e-06     7.88219018e-06 
   -2.88081953e-04    -8.06370851e-06    -7.89668862e-06 
   -2.86574592e-04    -7.82636101e-06    -2.33182034e-05 
   -2.87619521e-04    -7.39823484e-06    -3.89510180e-05 
   -2.85438611e-04    -6.86971293e-06    -4.83385831e-05 
   -2.93594375e-04    -7.19251743e-06    -6.22178261e-05 
   -2.90869877e-04    -2.15045031e-05     6.11227356e-05 
   -2.83118572e-04    -2.06495785e-05     4.73864535e-05 
   -2.85722110e-04    -2.20370703e-05     3.78952227e-05 
   -2.84646634e-04    -2.32628174e-05     2.31579725e-05 
   -2.86512693e-04    -2.35075497e-05     7.84457814e-06 
   -2.86512776e-04    -2.35068315e-05    -7.84950923e-06 
   -2.84646248e-04    -2.32728568e-05    -2.31735773e-05 
   -2.85722290e-04    -2.20370154e-05    -3.78988776e-05 
   -2.83119137e-04    -2.06483936e-05    -4.73890606e-05 
   -2.90869891e-04    -2.15022910e-05    -6.11233197e-05 
   -2.89921676e-04    -3.52521183e-05     5.93297454e-05 
   -2.82526356e-04    -3.48312153e-05     4.44967691e-05 
   -2.85462325e-04    -3.72506661e-05     3.69643207e-05 
   -2.85736007e-04    -3.81594129e-05     2.20967597e-05 
   -2.87527618e-04    -3.90528050e-05     7.33681956e-06 
   -2.87527751e-04    -3.90531952e-05    -7.34155541e-06 
   -2.85736363e-04    -3.81584786e-05    -2.21022993e-05 
   -2.85461972e-04    -3.72612208e-05    -3.69797619e-05 
   -2.82527604e-04    -3.48313572e-05    -4.44980285e-05 
   -2.89923206e-04    -3.52489914e-05    -5.93300948e-05 
   -2.85734689e-04    -4.25768880e-05     5.77510679e-05 
   -2.78301736e-04    -4.51873212e-05     4.48942676e-05 
   -2.82618629e-04    -4.47694047e-05     3.45789895e-05 
   -2.83159805e-04    -4.75564499e-05     2.03689877e-05 
   -2.85328481e-04    -4.84014455e-05     6.72837711e-06 
   -2.85328762e-04    -4.84014771e-05    -6.73191559e-06 
   -2.83160597e-04    -4.75574038e-05    -2.03732400e-05 
   -2.82619860e-04    -4.47685232e-05    -3.45838622e-05 
   -2.78301782e-04    -4.51994558e-05    -4.49081340e-05 
   -2.85737273e-04    -4.25766582e-05    -5.77492450e-05 
   -2.89471599e-04    -5.99244010e-05     5.46637111e-05 
   -2.87205111e-04    -5.80933110e-05     4.40240836e-05 
   -2.90470997e-04    -5.95965847e-05     3.52131497e-05 
   -2.91050707e-04    -6.12100656e-05     2.17207367e-05 
   -2.93085309e-04    -6.22297207e-05     6.88089635e-06 
   -2.93085647e-04    -6.22310905e-05    -6.88130172e-06 
   -2.91051106e-04    -6.12097160e-05    -2.17233410e-05 
   -2.90472331e-04    -5.95974632e-05    -3.52153847e-05 
   -2.87207310e-04    -5.80918056e-05    -4.40275710e-05 
   -2.89418478e-04    -5.98976397e-05    -5.46556813e-05 
   -2.35381990e-04     6.06145572e-05     6.05934576e-05 
   -2.34295807e-04     5.79128351e-05     5.00226163e-05 
   -2.36007314e-04     5.93887558e-05     3.85004899e-05 
   -2.36143746e-04     6.07530232e-05     2.33479169e-05 
   -2.37746657e-04     6.11572069e-05     7.69806537e-06 
   -2.37746777e-04     6.11579184e-05    -7.69582154e-06 
   -2.36143767e-04     6.07534465e-05    -2.33471415e-05 
   -2.36009537e-04     5.93896393e-05    -3.84997958e-05 
   -2.34295622e-04     5.79115081e-05    -5.00222558e-05 
   -2.35366344e-04     6.06101217e-05    -6.05893564e-05 
   -2.33265839e-04     5.00550252e-05     5.77976940e-05 
   -2.31339900e-04     5.17101383e-05     5.15519794e-05 
   -2.32965232e-04     5.12159077e-05     3.83114536e-05 
   -2.32983743e-04     5.31559148e-05     2.26200650e-05 
   -2.34597577e-04     5.38821885e-05     7.79206787e-06 
   -2.34597639e-04     5.38822968e-05    -7.79196356e-06 
   -2.32984068e-04     5.31566226e-05    -2.26200081e-05 
   -2.32964984e-04     5.12154003e-05    -3.83124400e-05 
   -2.31345464e-04     5.17060278e-05    -5.15487359e-05 
   -2.33266310e-04     5.00533977e-05    -5.77963501e-05 
   -2.35302131e-04     3.90100752e-05     5.93362706e-05 
   -2.32705658e-04     3.84294454e-05     5.13196216e-05 
   -2.33275848e-04     4.03945963e-05     4.03054898e-05 
   -2.32646673e-04     4.02520735e-05     2.35942019e-05 
   -2.34071694e-04     4.09674840e-05     7.91356308e-06 
   -2.34071709e-04     4.09677566e-05    -7.91463252e-06 
   -2.32646259e-04     4.02516213e-05    -2.35964257e-05 
   -2.33277589e-04     4.03946589e-05    -4.03078581e-05 
   -2.32705377e-04     3.84281410e-05    -5.13201537e-05 
   -2.35304005e-04     3.90069010e-05    -5.93369501e-05 
   -2.35982052e-04     2.36558218e-05     6.07415458e-05 
   -2.32909231e-04     2.27913845e-05     5.31462704e-05 
   -2.32605528e-04     2.35855008e-05     4.02357398e-05 
   -2.31569329e-04     2.46544110e-05     2.46483614e-05 
   -2.32815411e-04     2.46229463e-05     8.47024988e-06 
   -2.32815177e-04     2.46227514e-05    -8.47193057e-06 
   -2.31570166e-04     2.46553891e-05    -2.46514907e-05 
   -2.32605248e-04     2.35854001e-05    -4.02374489e-05 
   -2.32909990e-04     2.27894804e-05    -5.31477421e-05 
   -2.35982198e-04     2.36536974e-05    -6.07425628e-05 
   -2.37899783e-04     7.95743866e-06     6.11669604e-05 
   -2.34585749e-04     7.79822298e-06     5.39587190e-05 
   -2.34088436e-04     7.97823325e-06     4.10032740e-05 
   -2.32845787e-04     8.44148127e-06     2.46524444e-05 
   -2.34139013e-04     8.59541476e-06     8.57022703e-06 
   -2.34139057e-04     8.59670441e-06    -8.57333720e-06 
   -2.32845767e-04     8.44153434e-06    -2.46541782e-05 
   -2.34088637e-04     7.97800895e-06    -4.10050875e-05 
   -2.34585880e-04     7.79796952e-06    -5.39602193e-05 
   -2.37899880e-04     7.95624486e-06    -6.11685057e-05 
   -2.37899783e-04    -7.95743866e-06     6.11669604e-05 
   -2.34585749e-04    -7.79822298e-06     5.39587190e-05 
   -2.34088436e-04    -7.97823325e-06     4.10032740e-05 
   -2.32845787e-04    -8.44148127e-06     2.46524444e-05 
   -2.34139013e-04    -8.59541476e-06     8.57022703e-06 
   -2.34139057e-04    -8.59670441e-06    -8.57333720e-06 
   -2.32845767e-04    -8.44153434e-06    -2.46541782e-05 
   -2.34088637e-04    -7.97800895e-06    -4.10050875e-05 
   -2.34585880e-04    -7.79796952e-06    -5.39602193e-05 
   -2.37899880e-04    -7.95624486e-06    -6.11685057e-05 
   -2.35982052e-04    -2.36558218e-05     6.07415458e-05 
   -2.32909231e-04    -2.27913845e-05     5.31462704e-05 
   -2.32605528e-04    -2.35855008e-05     4.02357398e-05 
   -2.31569329e-04    -2.46544110e-05     2.46483614e-05 
   -2.32815411e-04    -2.46229463e-05     8.47024988e-06 
   -2.32815177e-04    -2.46227514e-05    -8.47193057e-06 
   -2.31570166e-04    -2.46553891e-05    -2.46514907e-05 
   -2.32605248e-04    -2.35854001e-05    -4.02374489e-05 
   -2.32909990e-04    -2.27894804e-05    -5.31477421e-05 
   -2.35982198e-04    -2.36536974e-05    -6.07425628e-05 
   -2.35302131e-04    -3.90100752e-05     5.93362706e-05 
   -2.32705658e-04    -3.84294454e-05     5.13196216e-05 
   -2.33275848e-04    -4.03945963e-05     4.03054898e-05 
   -2.32646673e-04    -4.02520735e-05     2.35942019e-05 
   -2.34071694e-04    -4.09674840e-05     7.91356308e-06 
   -2.34071709e-04    -4.09677566e-05    -7.91463252e-06 
   -2.32646259e-04    -4.02516213e-05    -2.35964257e-05 
   -2.33277589e-04    -4.03946589e-05    -4.03078581e-05 
   -2.32705377e-04    -3.84281410e-05    -5.13201537e-05 
   -2.35304005e-04    -3.90069010e-05    -5.93369501e-05 
   -2.33265839e-04    -5.00550252e-05     5.77976940e-05 
   -2.31339900e-04    -5.17101383e-05     5.15519794e-05 
   -2.32965232e-04    -5.12159077e-05     3.83114536e-05 
   -2.32983743e-04    -5.31559148e-05     2.26200650e-05 
   -2.34597577e-04    -5.38821885e-05     7.79206787e-06 
   -2.34597639e-04    -5.38822968e-05    -7.79196356e-06 
   -2.32984068e-04    -5.31566226e-05    -2.26200081e-05 
   -2.32964984e-04    -5.12154003e-05    -3.83124400e-05 
   -2.31345464e-04    -5.17060278e-05    -5.15487359e-05 
   -2.33266310e-04    -5.00533977e-05    -5.77963501e-05 
   -2.35381990e-04    -6.06145572e-05     6.05934576e-05 
   -2.34295807e-04    -5.79128351e-05     5.00226163e-05 
   -2.36007314e-04    -5.93887558e-05     3.85004899e-05 
   -2.36143746e-04    -6.07530232e-05     2.33479169e-05 
   -2.37746657e-04    -6.11572069e-05     7.69806537e-06 
   -2.37746777e-04    -6.11579184e-05    -7.69582154e-06 
   -2.36143767e-04    -6.07534465e-05    -2.33471415e-05 
   -2.36009537e-04    -5.93896393e-05    -3.84997958e-05 
   -2.34295622e-04    -5.79115081e-05    -5.00222558e-05 
   -2.35366344e-04    -6.06101217e-05    -6.05893564e-05 
   -1.71682491e-04     6.58075769e-05     6.62341418e-05 
   -1.71485540e-04     6.31041349e-05     5.06837914e-05 
   -1.70167023e-04     6.47801690e-05     3.75647870e-05 
   -1.70517002e-04     6.60153776e-05     2.43238296e-05 
   -1.70460549e-04     6.67697604e-05     8.33586342e-06 
   -1.70460961e-04     6.67704763e-05    -8.33538291e-06 
   -1.70517195e-04     6.60158300e-05    -2.43234192e-05 
   -1.70166656e-04     6.47798784e-05    -3.75658299e-05 
   -1.71485045e-04     6.31035573e-05    -5.06847585e-05 
   -1.71669689e-04     6.58061057e-05    -6.62332643e-05 
   -1.70304763e-04     5.09740120e-05     6.30442239e-05 
   -1.68632549e-04     5.37238061e-05     5.37261160e-05 
   -1.67993001e-04     5.26062790e-05     3.80104689e-05 
   -1.67596429e-04     5.40332782e-05     2.36485279e-05 
   -1.67585705e-04     5.48235473e-05     8.46132915e-06 
   -1.67585451e-04     5.48237276e-05    -8.46179325e-06 
   -1.67595643e-04     5.40334682e-05    -2.36494648e-05 
   -1.67993790e-04     5.26059837e-05    -3.80101064e-05 
   -1.68636859e-04     5.37222007e-05    -5.37253056e-05 
   -1.70303868e-04     5.09743341e-05    -6.30437685e-05 
   -1.69328094e-04     3.77996154e-05     6.47863618e-05 
   -1.67975708e-04     3.79863548e-05     5.25770061e-05 
   -1.66354533e-04     4.06370165e-05     4.04895709e-05 
   -1.65592557e-04     3.93552793e-05     2.42838417e-05 
   -1.65218866e-04     4.00541896e-05     8.52673428e-06 
   -1.65218278e-04     4.00545003e-05    -8.52821485e-06 
   -1.65592422e-04     3.93549619e-05    -2.42845165e-05 
   -1.66357554e-04     4.06361156e-05    -4.04904881e-05 
   -1.67976199e-04     3.79845218e-05    -5.25774879e-05 
   -1.69327318e-04     3.77987047e-05    -6.47858338e-05 
   -1.70241818e-04     2.43796595e-05     6.60231700e-05 
   -1.67512101e-04     2.36795956e-05     5.40000054e-05 
   -1.65533789e-04     2.43315783e-05     3.92303077e-05 
   -1.64659554e-04     2.55131731e-05     2.55055914e-05 
   -1.64271920e-04     2.49701077e-05     8.92348187e-06 
   -1.64271987e-04     2.49694890e-05    -8.92504814e-06 
   -1.64660405e-04     2.55140501e-05    -2.55083957e-05 
   -1.65534164e-04     2.43305879e-05    -3.92316947e-05 
   -1.67511317e-04     2.36789306e-05    -5.40010588e-05 
   -1.70241936e-04     2.43778117e-05    -6.60240138e-05 
   -1.70332037e-04     8.43120836e-06     6.67767205e-05 
   -1.67601429e-04     8.49251935e-06     5.48524049e-05 
   -1.65176735e-04     8.61895242e-06     4.01146259e-05 
   -1.64242227e-04     8.85905268e-06     2.50261895e-05 
   -1.64104790e-04     9.09354095e-06     9.08985631e-06 
   -1.64105035e-04     9.09527221e-06    -9.09267795e-06 
   -1.64242876e-04     8.85832490e-06    -2.50276876e-05 
   -1.65177468e-04     8.61906805e-06    -4.01162698e-05 
   -1.67602177e-04     8.49232236e-06    -5.48540620e-05 
   -1.70333200e-04     8.42998854e-06    -6.67781440e-05 
   -1.70332037e-04    -8.43120836e-06     6.67767205e-05 
   -1.67601429e-04    -8.49251935e-06     5.48524049e-05 
   -1.65176735e-04    -8.61895242e-06     4.01146259e-05 
   -1.64242227e-04    -8.85905268e-06     2.50261895e-05 
   -1.64104790e-04    -9.09354095e-06     9.08985631e-06 
   -1.64105035e-04    -9.09527221e-06    -9.09267795e-06 
   -1.64242876e-04    -8.85832490e-06    -2.50276876e-05 
   -1.65177468e-04    -8.61906805e-06    -4.01162698e-05 
   -1.67602177e-04    -8.49232236e-06    -5.48540620e-05 
   -1.70333200e-04    -8.42998854e-06    -6.67781440e-05 
   -1.70241818e-04    -2.43796595e-05     6.60231700e-05 
   -1.67512101e-04    -2.36795956e-05     5.40000054e-05 
   -1.65533789e-04    -2.43315783e-05     3.92303077e-05 
   -1.64659554e-04    -2.55131731e-05     2.55055914e-05 
   -1.64271920e-04    -2.49701077e-05     8.92348187e-06 
   -1.64271987e-04    -2.49694890e-05    -8.92504814e-06 
   -1.64660405e-04    -2.55140501e-05    -2.55083957e-05 
   -1.65534164e-04    -2.43305879e-05    -3.92316947e-05 
   -1.67511317e-04    -2.36789306e-05    -5.40010588e-05 
   -1.70241936e-04    -2.43778117e-05    -6.60240138e-05 
   -1.69328094e-04    -3.77996154e-05     6.47863618e-05 
   -1.67975708e-04    -3.79863548e-05     5.25770061e-05 
   -1.66354533e-04    -4.06370165e-05     4.04895709e-05 
   -1.65592557e-04    -3.93552793e-05     2.42838417e-05 
   -1.65218866e-04    -4.00541896e-05     8.52673428e-06 
   -1.65218278e-04    -4.00545003e-05    -8.52821485e-06 
   -1.65592422e-04    -3.93549619e-05    -2.42845165e-05 
   -1.66357554e-04    -4.06361156e-05    -4.04904881e-05 
   -1.67976199e-04    -3.79845218e-05    -5.25774879e-05 
   -1.69327318e-04    -3.77987047e-05    -6.47858338e-05 
   -1.70304763e-04    -5.09740120e-05     6.30442239e-05 
   -1.68632549e-04    -5.37238061e-05     5.37261160e-05 
   -1.67993001e-04    -5.26062790e-05     3.80104689e-05 
   -1.67596429e-04    -5.40332782e-05     2.36485279e-05 
   -1.67585705e-04    -5.48235473e-05     8.46132915e-06 
   -1.67585451e-04    -5.48237276e-05    -8.46179325e-06 
   -1.67595643e-04    -5.40334682e-05    -2.36494648e-05 
   -1.67993790e-04    -5.26059837e-05    -3.80101064e-05 
   -1.68636859e-04    -5.37222007e-05    -5.37253056e-05 
   -1.70303868e-04    -5.09743341e-05    -6.30437685e-05 
   -1.71682491e-04    -6.58075769e-05     6.62341418e-05 
   -1.71485540e-04    -6.31041349e-05     5.06837914e-05 
   -1.70167023e-04    -6.47801690e-05     3.75647870e-05 
   -1.70517002e-04    -6.60153776e-05     2.43238296e-05 
   -1.70460549e-04    -6.67697604e-05     8.33586342e-06 
   -1.70460961e-04    -6.67704763e-05    -8.33538291e-06 
   -1.70517195e-04    -6.60158300e-05    -2.43234192e-05 
   -1.70166656e-04    -6.47798784e-05    -3.75658299e-05 
   -1.71485045e-04    -6.31035573e-05    -5.06847585e-05 
   -1.71669689e-04    -6.58061057e-05    -6.62332643e-05 
   -1.03101457e-04     7.12435485e-05     7.17569670e-05 
   -1.03056301e-04     6.91629439e-05     5.21497039e-05 
   -1.02034687e-04     7.21181548e-05     3.52559829e-05 
   -1.02224847e-04     7.30341896e-05     2.19054442e-05 
   -1.00848165e-04     7.38133830e-05     7.49679909e-06 
   -1.00848616e-04     7.38136472e-05    -7.49736059e-06 
   -1.02224423e-04     7.30341727e-05    -2.19063223e-05 
   -1.02033900e-04     7.21182058e-05    -3.52572802e-05 
   -1.03055087e-04     6.91628615e-05    -5.21508043e-05 
   -1.03091620e-04     7.12435635e-05    -7.17572024e-05 
   -1.02303820e-04     5.19195430e-05     6.91607723e-05 
   -1.03169769e-04     5.51895649e-05     5.51380141e-05 
   -1.01772340e-04     5.37989381e-05     3.60702070e-05 
   -1.01721650e-04     5.46980995e-05     2.16854310e-05 
   -9.98509665e-05     5.51914246e-05     7.82342187e-06 
   -9.98506759e-05     5.51915169e-05    -7.82449525e-06 
   -1.01722152e-04     5.46980029e-05    -2.16857926e-05 
   -1.01772567e-04     5.37988603e-05    -3.60705916e-05 
   -1.03172684e-04     5.51891041e-05    -5.51381902e-05 
   -1.02302463e-04     5.19201890e-05    -6.91607027e-05 
   -1.01292868e-04     3.52288016e-05     7.21357726e-05 
   -1.01561548e-04     3.59674563e-05     5.38313456e-05 
   -9.94636455e-05     3.87518921e-05     3.86298671e-05 
   -9.92816699e-05     3.67164755e-05     2.24790219e-05 
   -9.72521708e-05     3.72516873e-05     7.83543333e-06 
   -9.72526112e-05     3.72515985e-05    -7.83661956e-06 
   -9.92821712e-05     3.67164649e-05    -2.24798141e-05 
   -9.94658028e-05     3.87518024e-05    -3.86310520e-05 
   -1.01561528e-04     3.59667234e-05    -5.38319883e-05 
   -1.01291484e-04     3.52288293e-05    -7.21356547e-05 
   -1.01988551e-04     2.22252208e-05     7.30274418e-05 
   -1.01678432e-04     2.17876210e-05     5.46886563e-05 
   -9.93066330e-05     2.25447044e-05     3.66003275e-05 
   -9.92528206e-05     2.38381959e-05     2.38417903e-05 
   -9.75207447e-05     2.27598816e-05     8.28751239e-06 
   -9.75210733e-05     2.27599782e-05    -8.28828859e-06 
   -9.92554205e-05     2.38381525e-05    -2.38434502e-05 
   -9.93072006e-05     2.25443313e-05    -3.66015741e-05 
   -1.01678628e-04     2.17870324e-05    -5.46893063e-05 
   -1.01988384e-04     2.22250882e-05    -7.30279464e-05 
   -1.00768613e-04     7.72030924e-06     7.38208665e-05 
   -9.98987834e-05     7.91785538e-06     5.52552491e-05 
   -9.72759877e-05     7.87612202e-06     3.73304755e-05 