# vtk DataFile Version 2.0 
generated by Lattice Boltzmann Method time =   1.44337567e+00
ASCII 
DATASET UNSTRUCTURED_GRID

POINTS   1000 FLOAT 
  0.00000000e+00   0.00000000e+00   0.00000000e+00 
  0.00000000e+00   0.00000000e+00   1.00000000e-01 
  0.00000000e+00   0.00000000e+00   2.00000000e-01 
  0.00000000e+00   0.00000000e+00   3.00000000e-01 
  0.00000000e+00   0.00000000e+00   4.00000000e-01 
  0.00000000e+00   0.00000000e+00   5.00000000e-01 
  0.00000000e+00   0.00000000e+00   6.00000000e-01 
  0.00000000e+00   0.00000000e+00   7.00000000e-01 
  0.00000000e+00   0.00000000e+00   8.00000000e-01 
  0.00000000e+00   0.00000000e+00   9.00000000e-01 
  0.00000000e+00   1.00000000e-01   0.00000000e+00 
  0.00000000e+00   1.00000000e-01   1.00000000e-01 
  0.00000000e+00   1.00000000e-01   2.00000000e-01 
  0.00000000e+00   1.00000000e-01   3.00000000e-01 
  0.00000000e+00   1.00000000e-01   4.00000000e-01 
  0.00000000e+00   1.00000000e-01   5.00000000e-01 
  0.00000000e+00   1.00000000e-01   6.00000000e-01 
  0.00000000e+00   1.00000000e-01   7.00000000e-01 
  0.00000000e+00   1.00000000e-01   8.00000000e-01 
  0.00000000e+00   1.00000000e-01   9.00000000e-01 
  0.00000000e+00   2.00000000e-01   0.00000000e+00 
  0.00000000e+00   2.00000000e-01   1.00000000e-01 
  0.00000000e+00   2.00000000e-01   2.00000000e-01 
  0.00000000e+00   2.00000000e-01   3.00000000e-01 
  0.00000000e+00   2.00000000e-01   4.00000000e-01 
  0.00000000e+00   2.00000000e-01   5.00000000e-01 
  0.00000000e+00   2.00000000e-01   6.00000000e-01 
  0.00000000e+00   2.00000000e-01   7.00000000e-01 
  0.00000000e+00   2.00000000e-01   8.00000000e-01 
  0.00000000e+00   2.00000000e-01   9.00000000e-01 
  0.00000000e+00   3.00000000e-01   0.00000000e+00 
  0.00000000e+00   3.00000000e-01   1.00000000e-01 
  0.00000000e+00   3.00000000e-01   2.00000000e-01 
  0.00000000e+00   3.00000000e-01   3.00000000e-01 
  0.00000000e+00   3.00000000e-01   4.00000000e-01 
  0.00000000e+00   3.00000000e-01   5.00000000e-01 
  0.00000000e+00   3.00000000e-01   6.00000000e-01 
  0.00000000e+00   3.00000000e-01   7.00000000e-01 
  0.00000000e+00   3.00000000e-01   8.00000000e-01 
  0.00000000e+00   3.00000000e-01   9.00000000e-01 
  0.00000000e+00   4.00000000e-01   0.00000000e+00 
  0.00000000e+00   4.00000000e-01   1.00000000e-01 
  0.00000000e+00   4.00000000e-01   2.00000000e-01 
  0.00000000e+00   4.00000000e-01   3.00000000e-01 
  0.00000000e+00   4.00000000e-01   4.00000000e-01 
  0.00000000e+00   4.00000000e-01   5.00000000e-01 
  0.00000000e+00   4.00000000e-01   6.00000000e-01 
  0.00000000e+00   4.00000000e-01   7.00000000e-01 
  0.00000000e+00   4.00000000e-01   8.00000000e-01 
  0.00000000e+00   4.00000000e-01   9.00000000e-01 
  0.00000000e+00   5.00000000e-01   0.00000000e+00 
  0.00000000e+00   5.00000000e-01   1.00000000e-01 
  0.00000000e+00   5.00000000e-01   2.00000000e-01 
  0.00000000e+00   5.00000000e-01   3.00000000e-01 
  0.00000000e+00   5.00000000e-01   4.00000000e-01 
  0.00000000e+00   5.00000000e-01   5.00000000e-01 
  0.00000000e+00   5.00000000e-01   6.00000000e-01 
  0.00000000e+00   5.00000000e-01   7.00000000e-01 
  0.00000000e+00   5.00000000e-01   8.00000000e-01 
  0.00000000e+00   5.00000000e-01   9.00000000e-01 
  0.00000000e+00   6.00000000e-01   0.00000000e+00 
  0.00000000e+00   6.00000000e-01   1.00000000e-01 
  0.00000000e+00   6.00000000e-01   2.00000000e-01 
  0.00000000e+00   6.00000000e-01   3.00000000e-01 
  0.00000000e+00   6.00000000e-01   4.00000000e-01 
  0.00000000e+00   6.00000000e-01   5.00000000e-01 
  0.00000000e+00   6.00000000e-01   6.00000000e-01 
  0.00000000e+00   6.00000000e-01   7.00000000e-01 
  0.00000000e+00   6.00000000e-01   8.00000000e-01 
  0.00000000e+00   6.00000000e-01   9.00000000e-01 
  0.00000000e+00   7.00000000e-01   0.00000000e+00 
  0.00000000e+00   7.00000000e-01   1.00000000e-01 
  0.00000000e+00   7.00000000e-01   2.00000000e-01 
  0.00000000e+00   7.00000000e-01   3.00000000e-01 
  0.00000000e+00   7.00000000e-01   4.00000000e-01 
  0.00000000e+00   7.00000000e-01   5.00000000e-01 
  0.00000000e+00   7.00000000e-01   6.00000000e-01 
  0.00000000e+00   7.00000000e-01   7.00000000e-01 
  0.00000000e+00   7.00000000e-01   8.00000000e-01 
  0.00000000e+00   7.00000000e-01   9.00000000e-01 
  0.00000000e+00   8.00000000e-01   0.00000000e+00 
  0.00000000e+00   8.00000000e-01   1.00000000e-01 
  0.00000000e+00   8.00000000e-01   2.00000000e-01 
  0.00000000e+00   8.00000000e-01   3.00000000e-01 
  0.00000000e+00   8.00000000e-01   4.00000000e-01 
  0.00000000e+00   8.00000000e-01   5.00000000e-01 
  0.00000000e+00   8.00000000e-01   6.00000000e-01 
  0.00000000e+00   8.00000000e-01   7.00000000e-01 
  0.00000000e+00   8.00000000e-01   8.00000000e-01 
  0.00000000e+00   8.00000000e-01   9.00000000e-01 
  0.00000000e+00   9.00000000e-01   0.00000000e+00 
  0.00000000e+00   9.00000000e-01   1.00000000e-01 
  0.00000000e+00   9.00000000e-01   2.00000000e-01 
  0.00000000e+00   9.00000000e-01   3.00000000e-01 
  0.00000000e+00   9.00000000e-01   4.00000000e-01 
  0.00000000e+00   9.00000000e-01   5.00000000e-01 
  0.00000000e+00   9.00000000e-01   6.00000000e-01 
  0.00000000e+00   9.00000000e-01   7.00000000e-01 
  0.00000000e+00   9.00000000e-01   8.00000000e-01 
  0.00000000e+00   9.00000000e-01   9.00000000e-01 
  1.00000000e-01   0.00000000e+00   0.00000000e+00 
  1.00000000e-01   0.00000000e+00   1.00000000e-01 
  1.00000000e-01   0.00000000e+00   2.00000000e-01 
  1.00000000e-01   0.00000000e+00   3.00000000e-01 
  1.00000000e-01   0.00000000e+00   4.00000000e-01 
  1.00000000e-01   0.00000000e+00   5.00000000e-01 
  1.00000000e-01   0.00000000e+00   6.00000000e-01 
  1.00000000e-01   0.00000000e+00   7.00000000e-01 
  1.00000000e-01   0.00000000e+00   8.00000000e-01 
  1.00000000e-01   0.00000000e+00   9.00000000e-01 
  1.00000000e-01   1.00000000e-01   0.00000000e+00 
  1.00000000e-01   1.00000000e-01   1.00000000e-01 
  1.00000000e-01   1.00000000e-01   2.00000000e-01 
  1.00000000e-01   1.00000000e-01   3.00000000e-01 
  1.00000000e-01   1.00000000e-01   4.00000000e-01 
  1.00000000e-01   1.00000000e-01   5.00000000e-01 
  1.00000000e-01   1.00000000e-01   6.00000000e-01 
  1.00000000e-01   1.00000000e-01   7.00000000e-01 
  1.00000000e-01   1.00000000e-01   8.00000000e-01 
  1.00000000e-01   1.00000000e-01   9.00000000e-01 
  1.00000000e-01   2.00000000e-01   0.00000000e+00 
  1.00000000e-01   2.00000000e-01   1.00000000e-01 
  1.00000000e-01   2.00000000e-01   2.00000000e-01 
  1.00000000e-01   2.00000000e-01   3.00000000e-01 
  1.00000000e-01   2.00000000e-01   4.00000000e-01 
  1.00000000e-01   2.00000000e-01   5.00000000e-01 
  1.00000000e-01   2.00000000e-01   6.00000000e-01 
  1.00000000e-01   2.00000000e-01   7.00000000e-01 
  1.00000000e-01   2.00000000e-01   8.00000000e-01 
  1.00000000e-01   2.00000000e-01   9.00000000e-01 
  1.00000000e-01   3.00000000e-01   0.00000000e+00 
  1.00000000e-01   3.00000000e-01   1.00000000e-01 
  1.00000000e-01   3.00000000e-01   2.00000000e-01 
  1.00000000e-01   3.00000000e-01   3.00000000e-01 
  1.00000000e-01   3.00000000e-01   4.00000000e-01 
  1.00000000e-01   3.00000000e-01   5.00000000e-01 
  1.00000000e-01   3.00000000e-01   6.00000000e-01 
  1.00000000e-01   3.00000000e-01   7.00000000e-01 
  1.00000000e-01   3.00000000e-01   8.00000000e-01 
  1.00000000e-01   3.00000000e-01   9.00000000e-01 
  1.00000000e-01   4.00000000e-01   0.00000000e+00 
  1.00000000e-01   4.00000000e-01   1.00000000e-01 
  1.00000000e-01   4.00000000e-01   2.00000000e-01 
  1.00000000e-01   4.00000000e-01   3.00000000e-01 
  1.00000000e-01   4.00000000e-01   4.00000000e-01 
  1.00000000e-01   4.00000000e-01   5.00000000e-01 
  1.00000000e-01   4.00000000e-01   6.00000000e-01 
  1.00000000e-01   4.00000000e-01   7.00000000e-01 
  1.00000000e-01   4.00000000e-01   8.00000000e-01 
  1.00000000e-01   4.00000000e-01   9.00000000e-01 
  1.00000000e-01   5.00000000e-01   0.00000000e+00 
  1.00000000e-01   5.00000000e-01   1.00000000e-01 
  1.00000000e-01   5.00000000e-01   2.00000000e-01 
  1.00000000e-01   5.00000000e-01   3.00000000e-01 
  1.00000000e-01   5.00000000e-01   4.00000000e-01 
  1.00000000e-01   5.00000000e-01   5.00000000e-01 
  1.00000000e-01   5.00000000e-01   6.00000000e-01 
  1.00000000e-01   5.00000000e-01   7.00000000e-01 
  1.00000000e-01   5.00000000e-01   8.00000000e-01 
  1.00000000e-01   5.00000000e-01   9.00000000e-01 
  1.00000000e-01   6.00000000e-01   0.00000000e+00 
  1.00000000e-01   6.00000000e-01   1.00000000e-01 
  1.00000000e-01   6.00000000e-01   2.00000000e-01 
  1.00000000e-01   6.00000000e-01   3.00000000e-01 
  1.00000000e-01   6.00000000e-01   4.00000000e-01 
  1.00000000e-01   6.00000000e-01   5.00000000e-01 
  1.00000000e-01   6.00000000e-01   6.00000000e-01 
  1.00000000e-01   6.00000000e-01   7.00000000e-01 
  1.00000000e-01   6.00000000e-01   8.00000000e-01 
  1.00000000e-01   6.00000000e-01   9.00000000e-01 
  1.00000000e-01   7.00000000e-01   0.00000000e+00 
  1.00000000e-01   7.00000000e-01   1.00000000e-01 
  1.00000000e-01   7.00000000e-01   2.00000000e-01 
  1.00000000e-01   7.00000000e-01   3.00000000e-01 
  1.00000000e-01   7.00000000e-01   4.00000000e-01 
  1.00000000e-01   7.00000000e-01   5.00000000e-01 
  1.00000000e-01   7.00000000e-01   6.00000000e-01 
  1.00000000e-01   7.00000000e-01   7.00000000e-01 
  1.00000000e-01   7.00000000e-01   8.00000000e-01 
  1.00000000e-01   7.00000000e-01   9.00000000e-01 
  1.00000000e-01   8.00000000e-01   0.00000000e+00 
  1.00000000e-01   8.00000000e-01   1.00000000e-01 
  1.00000000e-01   8.00000000e-01   2.00000000e-01 
  1.00000000e-01   8.00000000e-01   3.00000000e-01 
  1.00000000e-01   8.00000000e-01   4.00000000e-01 
  1.00000000e-01   8.00000000e-01   5.00000000e-01 
  1.00000000e-01   8.00000000e-01   6.00000000e-01 
  1.00000000e-01   8.00000000e-01   7.00000000e-01 
  1.00000000e-01   8.00000000e-01   8.00000000e-01 
[...]
POINT_DATA   1000
FIELD solution 1
u 3   1000 DOUBLE
   -1.49043225e-04    -6.16743404e-06    -4.40604369e-06 
   -1.36464183e-04    -3.66224481e-06    -1.28243991e-05 
   -1.23036181e-04     2.87477025e-06    -2.38825036e-05 
   -1.12077152e-04     6.83761347e-06    -1.75483504e-05 
   -1.03931036e-04     1.05030290e-05    -1.13570318e-05 
   -1.03932150e-04     1.05028373e-05     1.13407642e-05 
   -1.12080372e-04     6.83418119e-06     1.75314410e-05 
   -1.23041295e-04     2.87115528e-06     2.38640204e-05 
   -1.36473300e-04    -3.66702670e-06     1.28015563e-05 
   -1.48979665e-04    -6.20253527e-06     4.40363069e-06 
   -1.32901886e-04    -2.35356240e-05    -1.95867225e-06 
   -1.12601962e-04    -1.44132893e-05    -1.29739689e-05 
   -1.00522828e-04    -1.43803769e-05    -1.94888682e-05 
   -8.87103552e-05    -9.09934422e-06    -1.91658306e-05 
   -8.08343334e-05    -7.57146182e-06    -1.00959765e-05 
   -8.08354244e-05    -7.57444645e-06     1.00837474e-05 
   -8.87139756e-05    -9.09875579e-06     1.91536318e-05 
   -1.00528580e-04    -1.43847106e-05     1.94770890e-05 
   -1.12601764e-04    -1.43952335e-05     1.29457012e-05 
   -1.32910619e-04    -2.35285908e-05     1.94933662e-06 
   -1.22671038e-04    -2.50500482e-05     4.23702183e-06 
   -1.00501736e-04    -2.09041488e-05    -1.20265340e-05 
   -8.84919440e-05    -1.70557080e-05    -1.71692107e-05 
   -7.66126770e-05    -1.68634554e-05    -1.87610339e-05 
   -6.78781347e-05    -1.57466077e-05    -9.84319267e-06 
   -6.78793669e-05    -1.57480797e-05     9.82916084e-06 
   -7.66156087e-05    -1.68659581e-05     1.87478982e-05 
   -8.84920352e-05    -1.70432369e-05     1.71427231e-05 
   -1.00508168e-04    -2.09050935e-05     1.20134698e-05 
   -1.22679157e-04    -2.50438970e-05    -4.24824505e-06 
   -1.12313537e-04    -2.35893501e-05     7.76537729e-06 
   -8.88748595e-05    -2.05821693e-05    -9.36278688e-06 
   -7.67419704e-05    -2.05930621e-05    -1.64508574e-05 
   -6.41105802e-05    -1.83079235e-05    -1.78262002e-05 
   -5.56008506e-05    -1.87538639e-05    -9.27919576e-06 
   -5.56019184e-05    -1.87568427e-05     9.26487133e-06 
   -6.41109578e-05    -1.82957951e-05     1.77981343e-05 
   -7.67456064e-05    -2.05987708e-05     1.64387262e-05 
   -8.88796779e-05    -2.05872898e-05     9.35019211e-06 
   -1.12319120e-04    -2.35958591e-05    -7.77883503e-06 
   -1.04960018e-04    -7.98317227e-06     1.09996358e-05 
   -8.12262148e-05    -9.22005345e-06    -6.56743505e-06 
   -6.82528895e-05    -8.53606905e-06    -1.50031807e-05 
   -5.57301679e-05    -9.05726360e-06    -1.79773542e-05 
   -4.63028695e-05    -8.55724804e-06    -8.83080239e-06 
   -4.63030979e-05    -8.54215153e-06     8.79977631e-06 
   -5.57324926e-05    -9.06073709e-06     1.79633414e-05 
   -6.82560993e-05    -8.53886105e-06     1.49900324e-05 
   -8.12301867e-05    -9.22369992e-06     6.55363093e-06 
   -1.04964755e-04    -7.98502793e-06    -1.10138300e-05 
   -1.04960018e-04     7.98317227e-06     1.09996358e-05 
   -8.12262148e-05     9.22005345e-06    -6.56743505e-06 
   -6.82528895e-05     8.53606905e-06    -1.50031807e-05 
   -5.57301679e-05     9.05726360e-06    -1.79773542e-05 
   -4.63028695e-05     8.55724804e-06    -8.83080239e-06 
   -4.63030979e-05     8.54215153e-06     8.79977631e-06 
   -5.57324926e-05     9.06073709e-06     1.79633414e-05 
   -6.82560993e-05     8.53886105e-06     1.49900324e-05 
   -8.12301867e-05     9.22369992e-06     6.55363093e-06 
   -1.04964755e-04     7.98502793e-06    -1.10138300e-05 
   -1.12313537e-04     2.35893501e-05     7.76537729e-06 
   -8.88748595e-05     2.05821693e-05    -9.36278688e-06 
   -7.67419704e-05     2.05930621e-05    -1.64508574e-05 
   -6.41105802e-05     1.83079235e-05    -1.78262002e-05 
   -5.56008506e-05     1.87538639e-05    -9.27919576e-06 
   -5.56019184e-05     1.87568427e-05     9.26487133e-06 
   -6.41109578e-05     1.82957951e-05     1.77981343e-05 
   -7.67456064e-05     2.05987708e-05     1.64387262e-05 
   -8.88796779e-05     2.05872898e-05     9.35019211e-06 
   -1.12319120e-04     2.35958591e-05    -7.77883503e-06 
   -1.22671038e-04     2.50500482e-05     4.23702183e-06 
   -1.00501736e-04     2.09041488e-05    -1.20265340e-05 
   -8.84919440e-05     1.70557080e-05    -1.71692107e-05 
   -7.66126770e-05     1.68634554e-05    -1.87610339e-05 
   -6.78781347e-05     1.57466077e-05    -9.84319267e-06 
   -6.78793669e-05     1.57480797e-05     9.82916084e-06 
   -7.66156087e-05     1.68659581e-05     1.87478982e-05 
   -8.84920352e-05     1.70432369e-05     1.71427231e-05 
   -1.00508168e-04     2.09050935e-05     1.20134698e-05 
   -1.22679157e-04     2.50438970e-05    -4.24824505e-06 
   -1.32901886e-04     2.35356240e-05    -1.95867225e-06 
   -1.12601962e-04     1.44132893e-05    -1.29739689e-05 
   -1.00522828e-04     1.43803769e-05    -1.94888682e-05 
   -8.87103552e-05     9.09934422e-06    -1.91658306e-05 
   -8.08343334e-05     7.57146182e-06    -1.00959765e-05 
   -8.08354244e-05     7.57444645e-06     1.00837474e-05 
   -8.87139756e-05     9.09875579e-06     1.91536318e-05 
   -1.00528580e-04     1.43847106e-05     1.94770890e-05 
   -1.12601764e-04     1.43952335e-05     1.29457012e-05 
   -1.32910619e-04     2.35285908e-05     1.94933662e-06 
   -1.49043225e-04     6.16743404e-06    -4.40604369e-06 
   -1.36464183e-04     3.66224481e-06    -1.28243991e-05 
   -1.23036181e-04    -2.87477025e-06    -2.38825036e-05 
   -1.12077152e-04    -6.83761347e-06    -1.75483504e-05 
   -1.03931036e-04    -1.05030290e-05    -1.13570318e-05 
   -1.03932150e-04    -1.05028373e-05     1.13407642e-05 
   -1.12080372e-04    -6.83418119e-06     1.75314410e-05 
   -1.23041295e-04    -2.87115528e-06     2.38640204e-05 
   -1.36473300e-04     3.66702670e-06     1.28015563e-05 
   -1.48979665e-04     6.20253527e-06     4.40363069e-06 
   -1.13938755e-04    -2.33521489e-05    -1.81608352e-05 
   -9.55932569e-05    -1.96880769e-05    -2.64051547e-05 
   -8.86595156e-05    -1.31339242e-05    -3.01244721e-05 
   -7.87616366e-05    -9.72772252e-06    -2.65010831e-05 
   -7.65891475e-05    -6.56273025e-06    -1.18133579e-05 
   -7.65932238e-05    -6.56303888e-06     1.18105926e-05 
   -7.87606399e-05    -9.72912662e-06     2.64986007e-05 
   -8.86662457e-05    -1.31366713e-05     3.01194947e-05 
   -9.55933007e-05    -1.96929120e-05     2.64005864e-05 
   -1.13924185e-04    -2.33522976e-05     1.81597004e-05 
   -9.92450861e-05    -3.17678895e-05    -1.86503168e-05 
   -8.19879583e-05    -2.27299620e-05    -2.46482004e-05 
   -7.30149892e-05    -2.26165453e-05    -2.48424517e-05 
   -6.30997341e-05    -1.75314787e-05    -2.60817432e-05 
   -6.03785034e-05    -1.65864483e-05    -1.06292639e-05 
   -6.03822272e-05    -1.65901460e-05     1.06265147e-05 
   -6.30987643e-05    -1.75298989e-05     2.60804551e-05 
   -7.30185453e-05    -2.26231160e-05     2.48375800e-05 
   -8.19995593e-05    -2.27357541e-05     2.46572471e-05 
   -9.92555484e-05    -3.17690231e-05     1.86492181e-05 
   -8.66488615e-05    -3.12133832e-05    -1.23076278e-05 
   -7.13642113e-05    -2.77969813e-05    -1.98472572e-05 
   -6.19579094e-05    -2.32549334e-05    -2.36440431e-05 
   -5.35034841e-05    -2.40810322e-05    -2.47483001e-05 
   -5.01409274e-05    -2.30183336e-05    -1.13447456e-05 
   -5.01429004e-05    -2.30188651e-05     1.13401608e-05 
   -5.35025622e-05    -2.40835478e-05     2.47436967e-05 
   -6.19647892e-05    -2.32541827e-05     2.36386445e-05 
   -7.13635383e-05    -2.77985295e-05     1.98421793e-05 
   -8.66544497e-05    -3.12067365e-05     1.23014740e-05 
   -8.07374342e-05    -2.95844100e-05    -9.39252405e-06 
   -6.43157814e-05    -2.57437348e-05    -1.85389822e-05 
   -5.37400966e-05    -2.61927416e-05    -2.32890784e-05 
   -4.46820298e-05    -2.43655233e-05    -2.42895813e-05 
   -4.07074036e-05    -2.49013277e-05    -1.10124047e-05 
   -4.07085225e-05    -2.49034882e-05     1.10061859e-05 
   -4.46831228e-05    -2.43647543e-05     2.42833117e-05 
   -5.37414299e-05    -2.61970397e-05     2.32839906e-05 
   -6.43187672e-05    -2.57467734e-05     1.85345404e-05 
   -8.07443032e-05    -2.95906797e-05     9.38355183e-06 
   -7.68880858e-05    -9.71787743e-06    -6.57129166e-06 
   -6.05026225e-05    -1.10900683e-05    -1.55668707e-05 
   -4.99902994e-05    -1.02658882e-05    -2.25468936e-05 
   -4.09575548e-05    -1.11789741e-05    -2.43117767e-05 
   -3.64203668e-05    -1.06009354e-05    -1.08251165e-05 
   -3.64230057e-05    -1.05985026e-05     1.08160187e-05 
   -4.09587468e-05    -1.11807904e-05     2.43061634e-05 
   -4.99931585e-05    -1.02662381e-05     2.25419461e-05 
   -6.05058192e-05    -1.10928748e-05     1.55603793e-05 
   -7.68938872e-05    -9.71764059e-06     6.56218969e-06 
   -7.68880858e-05     9.71787743e-06    -6.57129166e-06 
   -6.05026225e-05     1.10900683e-05    -1.55668707e-05 
   -4.99902994e-05     1.02658882e-05    -2.25468936e-05 
   -4.09575548e-05     1.11789741e-05    -2.43117767e-05 
   -3.64203668e-05     1.06009354e-05    -1.08251165e-05 
   -3.64230057e-05     1.05985026e-05     1.08160187e-05 
   -4.09587468e-05     1.11807904e-05     2.43061634e-05 
   -4.99931585e-05     1.02662381e-05     2.25419461e-05 
   -6.05058192e-05     1.10928748e-05     1.55603793e-05 
   -7.68938872e-05     9.71764059e-06     6.56218969e-06 
   -8.07374342e-05     2.95844100e-05    -9.39252405e-06 
   -6.43157814e-05     2.57437348e-05    -1.85389822e-05 
   -5.37400966e-05     2.61927416e-05    -2.32890784e-05 
   -4.46820298e-05     2.43655233e-05    -2.42895813e-05 
   -4.07074036e-05     2.49013277e-05    -1.10124047e-05 
   -4.07085225e-05     2.49034882e-05     1.10061859e-05 
   -4.46831228e-05     2.43647543e-05     2.42833117e-05 
   -5.37414299e-05     2.61970397e-05     2.32839906e-05 
   -6.43187672e-05     2.57467734e-05     1.85345404e-05 
   -8.07443032e-05     2.95906797e-05     9.38355183e-06 
   -8.66488615e-05     3.12133832e-05    -1.23076278e-05 
   -7.13642113e-05     2.77969813e-05    -1.98472572e-05 
   -6.19579094e-05     2.32549334e-05    -2.36440431e-05 
   -5.35034841e-05     2.40810322e-05    -2.47483001e-05 
   -5.01409274e-05     2.30183336e-05    -1.13447456e-05 
   -5.01429004e-05     2.30188651e-05     1.13401608e-05 
   -5.35025622e-05     2.40835478e-05     2.47436967e-05 
   -6.19647892e-05     2.32541827e-05     2.36386445e-05 
   -7.13635383e-05     2.77985295e-05     1.98421793e-05 
   -8.66544497e-05     3.12067365e-05     1.23014740e-05 
   -9.92450861e-05     3.17678895e-05    -1.86503168e-05 
   -8.19879583e-05     2.27299620e-05    -2.46482004e-05 
   -7.30149892e-05     2.26165453e-05    -2.48424517e-05 
   -6.30997341e-05     1.75314787e-05    -2.60817432e-05 
   -6.03785034e-05     1.65864483e-05    -1.06292639e-05 
   -6.03822272e-05     1.65901460e-05     1.06265147e-05 
   -6.30987643e-05     1.75298989e-05     2.60804551e-05 
   -7.30185453e-05     2.26231160e-05     2.48375800e-05 
   -8.19995593e-05     2.27357541e-05     2.46572471e-05 
   -9.92555484e-05     3.17690231e-05     1.86492181e-05 
   -1.13938755e-04     2.33521489e-05    -1.81608352e-05 
   -9.55932569e-05     1.96880769e-05    -2.64051547e-05 
   -8.86595156e-05     1.31339242e-05    -3.01244721e-05 
   -7.87616366e-05     9.72772252e-06    -2.65010831e-05 
   -7.65891475e-05     6.56273025e-06    -1.18133579e-05 
   -7.65932238e-05     6.56303888e-06     1.18105926e-05 
   -7.87606399e-05     9.72912662e-06     2.64986007e-05 
   -8.86662457e-05     1.31366713e-05     3.01194947e-05 
   -9.55933007e-05     1.96929120e-05     2.64005864e-05 
   -1.13924185e-04     2.33522976e-05     1.81597004e-05 
   -7.70242202e-05    -3.75469254e-05    -3.01642785e-05 
   -6.82753827e-05    -3.47000594e-05    -3.89097305e-05 
   -5.88384494e-05    -2.59141469e-05    -4.01431417e-05 
   -5.66635702e-05    -2.21798605e-05    -2.91502230e-05 
   -5.48643081e-05    -1.93806941e-05    -1.31931885e-05 
   -5.48654740e-05    -1.93814608e-05     1.31880470e-05 
   -5.66659581e-05    -2.21810226e-05     2.91449184e-05 
   -5.88402440e-05    -2.59172319e-05     4.01385229e-05 
   -6.82812624e-05    -3.47023611e-05     3.89010965e-05 
   -7.70083494e-05    -3.75473934e-05     3.01598130e-05 
   -6.62290004e-05    -4.20644371e-05    -3.39742686e-05 
   -5.58157320e-05    -3.71419868e-05    -3.51931083e-05 
   -4.69724865e-05    -3.51463648e-05    -3.68574585e-05 
   -4.50837645e-05    -3.18344931e-05    -2.78163540e-05 
   -4.34690685e-05    -3.11713726e-05    -1.24359527e-05 
   -4.34696125e-05    -3.11731891e-05     1.24336333e-05 
   -4.50845451e-05    -3.18340802e-05     2.78126060e-05 
   -4.69738227e-05    -3.51496885e-05     3.68573730e-05 
   -5.58280764e-05    -3.71454805e-05     3.51923531e-05 
   -6.62318338e-05    -4.20584662e-05     3.39712724e-05 
   -5.99006372e-05    -4.22045578e-05    -2.50861567e-05 
   -4.84737377e-05    -3.84557588e-05    -3.42921881e-05 
   -3.95703371e-05    -3.34749807e-05    -3.37108644e-05 
   -3.67786070e-05    -3.38128936e-05    -2.75491822e-05 
   -3.49618460e-05    -3.29803335e-05    -1.19119226e-05 
   -3.49616484e-05    -3.29807448e-05     1.19067861e-05 
   -3.67801323e-05    -3.38145913e-05     2.75456861e-05 
   -3.95760800e-05    -3.34776569e-05     3.37078960e-05 
   -4.84777117e-05    -3.84603376e-05     3.42875335e-05 
   -5.99048425e-05    -4.22033358e-05     2.50831075e-05 
   -5.73361383e-05    -3.16880872e-05    -2.18737577e-05 
   -4.51471565e-05    -2.88174065e-05    -3.21979275e-05 
   -3.66868781e-05    -2.86399512e-05    -3.34900693e-05 
   -3.28284927e-05    -2.71197264e-05    -2.68647532e-05 
   -3.12273186e-05    -2.77569987e-05    -1.16477367e-05 
   -3.12284985e-05    -2.77595830e-05     1.16416125e-05 
   -3.28336640e-05    -2.71182588e-05     2.68577694e-05 
   -3.66886617e-05    -2.86430990e-05     3.34844380e-05 
   -4.51486908e-05    -2.88182650e-05     3.21926851e-05 
   -5.73414632e-05    -3.16906275e-05     2.18671564e-05 
   -5.56014855e-05    -1.17013923e-05    -1.94413973e-05 
   -4.37414150e-05    -1.17022605e-05    -3.07681672e-05 
   -3.49965003e-05    -1.11554542e-05    -3.25795783e-05 
   -3.12220299e-05    -1.17078168e-05    -2.73136424e-05 
   -2.92392221e-05    -1.13413906e-05    -1.13091078e-05 
   -2.92414770e-05    -1.13383210e-05     1.13006518e-05 
   -3.12232263e-05    -1.17108872e-05     2.73081005e-05 
   -3.49979202e-05    -1.11552881e-05     3.25736638e-05 
   -4.37449541e-05    -1.17042432e-05     3.07616802e-05 
   -5.56060346e-05    -1.17019146e-05     1.94346463e-05 
   -5.56014855e-05     1.17013923e-05    -1.94413973e-05 
   -4.37414150e-05     1.17022605e-05    -3.07681672e-05 
   -3.49965003e-05     1.11554542e-05    -3.25795783e-05 
   -3.12220299e-05     1.17078168e-05    -2.73136424e-05 
   -2.92392221e-05     1.13413906e-05    -1.13091078e-05 
   -2.92414770e-05     1.13383210e-05     1.13006518e-05 
   -3.12232263e-05     1.17108872e-05     2.73081005e-05 
   -3.49979202e-05     1.11552881e-05     3.25736638e-05 
   -4.37449541e-05     1.17042432e-05     3.07616802e-05 
   -5.56060346e-05     1.17019146e-05     1.94346463e-05 
   -5.73361383e-05     3.16880872e-05    -2.18737577e-05 
   -4.51471565e-05     2.88174065e-05    -3.21979275e-05 
   -3.66868781e-05     2.86399512e-05    -3.34900693e-05 
   -3.28284927e-05     2.71197264e-05    -2.68647532e-05 
   -3.12273186e-05     2.77569987e-05    -1.16477367e-05 
   -3.12284985e-05     2.77595830e-05     1.16416125e-05 
   -3.28336640e-05     2.71182588e-05     2.68577694e-05 
   -3.66886617e-05     2.86430990e-05     3.34844380e-05 
   -4.51486908e-05     2.88182650e-05     3.21926851e-05 
   -5.73414632e-05     3.16906275e-05     2.18671564e-05 
   -5.99006372e-05     4.22045578e-05    -2.50861567e-05 
   -4.84737377e-05     3.84557588e-05    -3.42921881e-05 
   -3.95703371e-05     3.34749807e-05    -3.37108644e-05 
   -3.67786070e-05     3.38128936e-05    -2.75491822e-05 
   -3.49618460e-05     3.29803335e-05    -1.19119226e-05 
   -3.49616484e-05     3.29807448e-05     1.19067861e-05 
   -3.67801323e-05     3.38145913e-05     2.75456861e-05 
   -3.95760800e-05     3.34776569e-05     3.37078960e-05 
   -4.84777117e-05     3.84603376e-05     3.42875335e-05 
   -5.99048425e-05     4.22033358e-05     2.50831075e-05 
   -6.62290004e-05     4.20644371e-05    -3.39742686e-05 
   -5.58157320e-05     3.71419868e-05    -3.51931083e-05 
   -4.69724865e-05     3.51463648e-05    -3.68574585e-05 
   -4.50837645e-05     3.18344931e-05    -2.78163540e-05 
   -4.34690685e-05     3.11713726e-05    -1.24359527e-05 
   -4.34696125e-05     3.11731891e-05     1.24336333e-05 
   -4.50845451e-05     3.18340802e-05     2.78126060e-05 
   -4.69738227e-05     3.51496885e-05     3.68573730e-05 
   -5.58280764e-05     3.71454805e-05     3.51923531e-05 
   -6.62318338e-05     4.20584662e-05     3.39712724e-05 
   -7.70242202e-05     3.75469254e-05    -3.01642785e-05 
   -6.82753827e-05     3.47000594e-05    -3.89097305e-05 
   -5.88384494e-05     2.59141469e-05    -4.01431417e-05 
   -5.66635702e-05     2.21798605e-05    -2.91502230e-05 
   -5.48643081e-05     1.93806941e-05    -1.31931885e-05 
   -5.48654740e-05     1.93814608e-05     1.31880470e-05 
   -5.66659581e-05     2.21810226e-05     2.91449184e-05 
   -5.88402440e-05     2.59172319e-05     4.01385229e-05 
   -6.82812624e-05     3.47023611e-05     3.89010965e-05 
   -7.70083494e-05     3.75473934e-05     3.01598130e-05 
   -4.29540016e-05    -4.98311575e-05    -4.20160809e-05 
   -3.41413182e-05    -4.70258571e-05    -5.05809040e-05 
   -3.29693016e-05    -3.96883334e-05    -4.52804306e-05 
   -2.97249615e-05    -3.38190200e-05    -3.27946786e-05 
   -2.90086355e-05    -3.15077055e-05    -1.27765301e-05 
   -2.90106265e-05    -3.15083517e-05     1.27703343e-05 
   -2.97241444e-05    -3.38210182e-05     3.27890454e-05 
   -3.29711636e-05    -3.96903226e-05     4.52730461e-05 
   -3.41421956e-05    -4.70273324e-05     5.05754309e-05 
   -4.29406809e-05    -4.98293950e-05     4.20083105e-05 
   -3.69086292e-05    -5.37283435e-05    -4.66875447e-05 
   -2.91850269e-05    -4.65826355e-05    -4.59049216e-05 
   -2.77190252e-05    -4.46605198e-05    -4.24277404e-05 
   -2.57978279e-05    -4.07211669e-05    -3.13621401e-05 
   -2.50130359e-05    -3.90523159e-05    -1.22318454e-05 
   -2.50136481e-05    -3.90537582e-05     1.22276534e-05 
   -2.57986843e-05    -4.07219511e-05     3.13610175e-05 
   -2.77221327e-05    -4.46632338e-05     4.24253404e-05 
   -2.91922626e-05    -4.65850995e-05     4.59052030e-05 
   -3.69136272e-05    -5.37285457e-05     4.66837012e-05 
   -3.33400792e-05    -4.85327379e-05    -3.92613334e-05 
   -2.70213707e-05    -4.40042128e-05    -4.46943654e-05 
   -2.47825686e-05    -3.94556152e-05    -3.90805210e-05 
   -2.30659557e-05    -3.92972713e-05    -3.05773021e-05 
   -2.24414027e-05    -3.87305189e-05    -1.18346256e-05 
   -2.24430447e-05    -3.87313745e-05     1.18297862e-05 
   -2.30667084e-05    -3.92982108e-05     3.05752132e-05 
   -2.47909454e-05    -3.94561156e-05     3.90766037e-05 
   -2.70243519e-05    -4.40054618e-05     4.46918169e-05 
   -3.33439981e-05    -4.85294210e-05     3.92573426e-05 
   -3.07555816e-05    -3.47004609e-05    -3.36264363e-05 
   -2.56331220e-05    -3.14392832e-05    -4.06435520e-05 
   -2.33758170e-05    -3.11861837e-05    -3.91067992e-05 
   -2.07200175e-05    -2.95055318e-05    -2.91708910e-05 
   -1.97224165e-05    -2.98905766e-05    -1.20302073e-05 
   -1.97232985e-05    -2.98914320e-05     1.20249529e-05 
   -2.07253001e-05    -2.95065475e-05     2.91657305e-05 
   -2.33783077e-05    -3.11896112e-05     3.91022180e-05 
   -2.56363744e-05    -3.14413120e-05     4.06398456e-05 
   -3.07604770e-05    -3.47027751e-05     3.36214495e-05 
   -2.90674004e-05    -1.21293567e-05    -3.17077029e-05 
   -2.49013606e-05    -1.22619038e-05    -3.86046943e-05 
   -2.22850754e-05    -1.17852637e-05    -3.83640291e-05 