# vtk DataFile Version 2.0 
generated by Lattice Boltzmann Method time =   1.55884573e+00
ASCII 
DATASET UNSTRUCTURED_GRID

POINTS   1000 FLOAT 
  0.00000000e+00   0.00000000e+00   0.00000000e+00 
  0.00000000e+00   0.00000000e+00   1.00000000e-01 
  0.00000000e+00   0.00000000e+00   2.00000000e-01 
  0.00000000e+00   0.00000000e+00   3.00000000e-01 
  0.00000000e+00   0.00000000e+00   4.00000000e-01 
  0.00000000e+00   0.00000000e+00   5.00000000e-01 
  0.00000000e+00   0.00000000e+00   6.00000000e-01 
  0.00000000e+00   0.00000000e+00   7.00000000e-01 
  0.00000000e+00   0.00000000e+00   8.00000000e-01 
  0.00000000e+00   0.00000000e+00   9.00000000e-01 
  0.00000000e+00   1.00000000e-01   0.00000000e+00 
  0.00000000e+00   1.00000000e-01   1.00000000e-01 
  0.00000000e+00   1.00000000e-01   2.00000000e-01 
  0.00000000e+00   1.00000000e-01   3.00000000e-01 
  0.00000000e+00   1.00000000e-01   4.00000000e-01 
  0.00000000e+00   1.00000000e-01   5.00000000e-01 
  0.00000000e+00   1.00000000e-01   6.00000000e-01 
  0.00000000e+00   1.00000000e-01   7.00000000e-01 
  0.00000000e+00   1.00000000e-01   8.00000000e-01 
  0.00000000e+00   1.00000000e-01   9.00000000e-01 
  0.00000000e+00   2.00000000e-01   0.00000000e+00 
  0.00000000e+00   2.00000000e-01   1.00000000e-01 
  0.00000000e+00   2.00000000e-01   2.00000000e-01 
  0.00000000e+00   2.00000000e-01   3.00000000e-01 
  0.00000000e+00   2.00000000e-01   4.00000000e-01 
  0.00000000e+00   2.00000000e-01   5.00000000e-01 
  0.00000000e+00   2.00000000e-01   6.00000000e-01 
  0.00000000e+00   2.00000000e-01   7.00000000e-01 
  0.00000000e+00   2.00000000e-01   8.00000000e-01 
  0.00000000e+00   2.00000000e-01   9.00000000e-01 
  0.00000000e+00   3.00000000e-01   0.00000000e+00 
  0.00000000e+00   3.00000000e-01   1.00000000e-01 
  0.00000000e+00   3.00000000e-01   2.00000000e-01 
  0.00000000e+00   3.00000000e-01   3.00000000e-01 
  0.00000000e+00   3.00000000e-01   4.00000000e-01 
  0.00000000e+00   3.00000000e-01   5.00000000e-01 
  0.00000000e+00   3.00000000e-01   6.00000000e-01 
  0.00000000e+00   3.00000000e-01   7.00000000e-01 
  0.00000000e+00   3.00000000e-01   8.00000000e-01 
  0.00000000e+00   3.00000000e-01   9.00000000e-01 
  0.00000000e+00   4.00000000e-01   0.00000000e+00 
  0.00000000e+00   4.00000000e-01   1.00000000e-01 
  0.00000000e+00   4.00000000e-01   2.00000000e-01 
  0.00000000e+00   4.00000000e-01   3.00000000e-01 
  0.00000000e+00   4.00000000e-01   4.00000000e-01 
  0.00000000e+00   4.00000000e-01   5.00000000e-01 
  0.00000000e+00   4.00000000e-01   6.00000000e-01 
  0.00000000e+00   4.00000000e-01   7.00000000e-01 
  0.00000000e+00   4.00000000e-01   8.00000000e-01 
  0.00000000e+00   4.00000000e-01   9.00000000e-01 
  0.00000000e+00   5.00000000e-01   0.00000000e+00 
  0.00000000e+00   5.00000000e-01   1.00000000e-01 
  0.00000000e+00   5.00000000e-01   2.00000000e-01 
  0.00000000e+00   5.00000000e-01   3.00000000e-01 
  0.00000000e+00   5.00000000e-01   4.00000000e-01 
  0.00000000e+00   5.00000000e-01   5.00000000e-01 
  0.00000000e+00   5.00000000e-01   6.00000000e-01 
  0.00000000e+00   5.00000000e-01   7.00000000e-01 
  0.00000000e+00   5.00000000e-01   8.00000000e-01 
  0.00000000e+00   5.00000000e-01   9.00000000e-01 
  0.00000000e+00   6.00000000e-01   0.00000000e+00 
  0.00000000e+00   6.00000000e-01   1.00000000e-01 
  0.00000000e+00   6.00000000e-01   2.00000000e-01 
  0.00000000e+00   6.00000000e-01   3.00000000e-01 
  0.00000000e+00   6.00000000e-01   4.00000000e-01 
  0.00000000e+00   6.00000000e-01   5.00000000e-01 
  0.00000000e+00   6.00000000e-01   6.00000000e-01 
  0.00000000e+00   6.00000000e-01   7.00000000e-01 
  0.00000000e+00   6.00000000e-01   8.00000000e-01 
  0.00000000e+00   6.00000000e-01   9.00000000e-01 
  0.00000000e+00   7.00000000e-01   0.00000000e+00 
  0.00000000e+00   7.00000000e-01   1.00000000e-01 
  0.00000000e+00   7.00000000e-01   2.00000000e-01 
  0.00000000e+00   7.00000000e-01   3.00000000e-01 
  0.00000000e+00   7.00000000e-01   4.00000000e-01 
  0.00000000e+00   7.00000000e-01   5.00000000e-01 
  0.00000000e+00   7.00000000e-01   6.00000000e-01 
  0.00000000e+00   7.00000000e-01   7.00000000e-01 
  0.00000000e+00   7.00000000e-01   8.00000000e-01 
  0.00000000e+00   7.00000000e-01   9.00000000e-01 
  0.00000000e+00   8.00000000e-01   0.00000000e+00 
  0.00000000e+00   8.00000000e-01   1.00000000e-01 
  0.00000000e+00   8.00000000e-01   2.00000000e-01 
  0.00000000e+00   8.00000000e-01   3.00000000e-01 
  0.00000000e+00   8.00000000e-01   4.00000000e-01 
  0.00000000e+00   8.00000000e-01   5.00000000e-01 
  0.00000000e+00   8.00000000e-01   6.00000000e-01 
  0.00000000e+00   8.00000000e-01   7.00000000e-01 
  0.00000000e+00   8.00000000e-01   8.00000000e-01 
  0.00000000e+00   8.00000000e-01   9.00000000e-01 
  0.00000000e+00   9.00000000e-01   0.00000000e+00 
  0.00000000e+00   9.00000000e-01   1.00000000e-01 
  0.00000000e+00   9.00000000e-01   2.00000000e-01 
  0.00000000e+00   9.00000000e-01   3.00000000e-01 
  0.00000000e+00   9.00000000e-01   4.00000000e-01 
  0.00000000e+00   9.00000000e-01   5.00000000e-01 
  0.00000000e+00   9.00000000e-01   6.00000000e-01 
  0.00000000e+00   9.00000000e-01   7.00000000e-01 
  0.00000000e+00   9.00000000e-01   8.00000000e-01 
  0.00000000e+00   9.00000000e-01   9.00000000e-01 
  1.00000000e-01   0.00000000e+00   0.00000000e+00 
  1.00000000e-01   0.00000000e+00   1.00000000e-01 
  1.00000000e-01   0.00000000e+00   2.00000000e-01 
  1.00000000e-01   0.00000000e+00   3.00000000e-01 
  1.00000000e-01   0.00000000e+00   4.00000000e-01 
  1.00000000e-01   0.00000000e+00   5.00000000e-01 
  1.00000000e-01   0.00000000e+00   6.00000000e-01 
  1.00000000e-01   0.00000000e+00   7.00000000e-01 
  1.00000000e-01   0.00000000e+00   8.00000000e-01 
  1.00000000e-01   0.00000000e+00   9.00000000e-01 
  1.00000000e-01   1.00000000e-01   0.00000000e+00 
  1.00000000e-01   1.00000000e-01   1.00000000e-01 
  1.00000000e-01   1.00000000e-01   2.00000000e-01 
  1.00000000e-01   1.00000000e-01   3.00000000e-01 
  1.00000000e-01   1.00000000e-01   4.00000000e-01 
  1.00000000e-01   1.00000000e-01   5.00000000e-01 
  1.00000000e-01   1.00000000e-01   6.00000000e-01 
  1.00000000e-01   1.00000000e-01   7.00000000e-01 
  1.00000000e-01   1.00000000e-01   8.00000000e-01 
  1.00000000e-01   1.00000000e-01   9.00000000e-01 
  1.00000000e-01   2.00000000e-01   0.00000000e+00 
  1.00000000e-01   2.00000000e-01   1.00000000e-01 
  1.00000000e-01   2.00000000e-01   2.00000000e-01 
  1.00000000e-01   2.00000000e-01   3.00000000e-01 
  1.00000000e-01   2.00000000e-01   4.00000000e-01 
  1.00000000e-01   2.00000000e-01   5.00000000e-01 
  1.00000000e-01   2.00000000e-01   6.00000000e-01 
  1.00000000e-01   2.00000000e-01   7.00000000e-01 
  1.00000000e-01   2.00000000e-01   8.00000000e-01 
  1.00000000e-01   2.00000000e-01   9.00000000e-01 
  1.00000000e-01   3.00000000e-01   0.00000000e+00 
  1.00000000e-01   3.00000000e-01   1.00000000e-01 
  1.00000000e-01   3.00000000e-01   2.00000000e-01 
  1.00000000e-01   3.00000000e-01   3.00000000e-01 
  1.00000000e-01   3.00000000e-01   4.00000000e-01 
  1.00000000e-01   3.00000000e-01   5.00000000e-01 
  1.00000000e-01   3.00000000e-01   6.00000000e-01 
  1.00000000e-01   3.00000000e-01   7.00000000e-01 
  1.00000000e-01   3.00000000e-01   8.00000000e-01 
  1.00000000e-01   3.00000000e-01   9.00000000e-01 
  1.00000000e-01   4.00000000e-01   0.00000000e+00 
  1.00000000e-01   4.00000000e-01   1.00000000e-01 
  1.00000000e-01   4.00000000e-01   2.00000000e-01 
  1.00000000e-01   4.00000000e-01   3.00000000e-01 
  1.00000000e-01   4.00000000e-01   4.00000000e-01 
  1.00000000e-01   4.00000000e-01   5.00000000e-01 
  1.00000000e-01   4.00000000e-01   6.00000000e-01 
  1.00000000e-01   4.00000000e-01   7.00000000e-01 
  1.00000000e-01   4.00000000e-01   8.00000000e-01 
  1.00000000e-01   4.00000000e-01   9.00000000e-01 
  1.00000000e-01   5.00000000e-01   0.00000000e+00 
  1.00000000e-01   5.00000000e-01   1.00000000e-01 
  1.00000000e-01   5.00000000e-01   2.00000000e-01 
  1.00000000e-01   5.00000000e-01   3.00000000e-01 
  1.00000000e-01   5.00000000e-01   4.00000000e-01 
  1.00000000e-01   5.00000000e-01   5.00000000e-01 
  1.00000000e-01   5.00000000e-01   6.00000000e-01 
  1.00000000e-01   5.00000000e-01   7.00000000e-01 
  1.00000000e-01   5.00000000e-01   8.00000000e-01 
  1.00000000e-01   5.00000000e-01   9.00000000e-01 
  1.00000000e-01   6.00000000e-01   0.00000000e+00 
  1.00000000e-01   6.00000000e-01   1.00000000e-01 
  1.00000000e-01   6.00000000e-01   2.00000000e-01 
  1.00000000e-01   6.00000000e-01   3.00000000e-01 
  1.00000000e-01   6.00000000e-01   4.00000000e-01 
  1.00000000e-01   6.00000000e-01   5.00000000e-01 
  1.00000000e-01   6.00000000e-01   6.00000000e-01 
  1.00000000e-01   6.00000000e-01   7.00000000e-01 
  1.00000000e-01   6.00000000e-01   8.00000000e-01 
  1.00000000e-01   6.00000000e-01   9.00000000e-01 
  1.00000000e-01   7.00000000e-01   0.00000000e+00 
  1.00000000e-01   7.00000000e-01   1.00000000e-01 
  1.00000000e-01   7.00000000e-01   2.00000000e-01 
  1.00000000e-01   7.00000000e-01   3.00000000e-01 
  1.00000000e-01   7.00000000e-01   4.00000000e-01 
  1.00000000e-01   7.00000000e-01   5.00000000e-01 
  1.00000000e-01   7.00000000e-01   6.00000000e-01 
  1.00000000e-01   7.00000000e-01   7.00000000e-01 
  1.00000000e-01   7.00000000e-01   8.00000000e-01 
  1.00000000e-01   7.00000000e-01   9.00000000e-01 
  1.00000000e-01   8.00000000e-01   0.00000000e+00 
  1.00000000e-01   8.00000000e-01   1.00000000e-01 
  1.00000000e-01   8.00000000e-01   2.00000000e-01 
  1.00000000e-01   8.00000000e-01   3.00000000e-01 
  1.00000000e-01   8.00000000e-01   4.00000000e-01 
  1.00000000e-01   8.00000000e-01   5.00000000e-01 
  1.00000000e-01   8.00000000e-01   6.00000000e-01 
  1.00000000e-01   8.00000000e-01   7.00000000e-01 
  1.00000000e-01   8.00000000e-01   8.00000000e-01 
[...]
POINT_DATA   1000
FIELD solution 1
u 3   1000 DOUBLE
   -1.78079103e-04     1.86172433e-05     1.69339127e-05 
   -1.66725068e-04     1.69727835e-05     9.96611072e-06 
   -1.51223445e-04     2.32475122e-05     4.74026974e-07 
   -1.39229060e-04     2.84136501e-05     1.00537684e-05 
   -1.31606637e-04     3.15518753e-05     3.42877350e-07 
   -1.31607003e-04     3.15510847e-05    -3.63733274e-07 
   -1.39231735e-04     2.84113515e-05    -1.00760359e-05 
   -1.51226393e-04     2.32454069e-05    -4.92709090e-07 
   -1.66734185e-04     1.69691736e-05    -9.99000474e-06 
   -1.78029466e-04     1.85899563e-05    -1.69419070e-05 
   -1.63102517e-04     8.71036699e-08     1.83624624e-05 
   -1.42584335e-04     6.68435121e-06     6.79049046e-06 
   -1.29005817e-04     8.95887940e-06     3.14142974e-06 
   -1.16737017e-04     1.57599125e-05     8.37735127e-06 
   -1.08747110e-04     1.86211701e-05     3.14756683e-06 
   -1.08747629e-04     1.86174498e-05    -3.16186301e-06 
   -1.16739280e-04     1.57606337e-05    -8.39218534e-06 
   -1.29009770e-04     8.95300302e-06    -3.15208026e-06 
   -1.42582094e-04     6.69741897e-06    -6.81571441e-06 
   -1.63109754e-04     9.07607845e-08    -1.83740291e-05 
   -1.50573296e-04     2.01129686e-06     2.38822784e-05 
   -1.28857648e-04     2.28894616e-06     1.18033673e-05 
   -1.13364318e-04     8.06346709e-06     8.41441221e-06 
   -1.00219917e-04     9.87011561e-06     1.01306108e-05 
   -9.13405952e-05     1.28736822e-05     3.30872700e-06 
   -9.13414463e-05     1.28733135e-05    -3.32320341e-06 
   -1.00221795e-04     9.86938082e-06    -1.01462872e-05 
   -1.13363643e-04     8.07303016e-06    -8.43939571e-06 
   -1.28863726e-04     2.28655160e-06    -1.18175608e-05 
   -1.50579751e-04     2.01958374e-06    -2.38948072e-05 
   -1.38613462e-04     3.80989586e-07     2.94703306e-05 
   -1.16218052e-04     4.74556190e-06     1.52951871e-05 
   -9.99572552e-05     6.58868723e-06     1.01051841e-05 
   -8.67740419e-05     1.06123231e-05     1.12055901e-05 
   -7.78277505e-05     1.09362049e-05     4.71441235e-06 
   -7.78282087e-05     1.09346161e-05    -4.72680778e-06 
   -8.67735614e-05     1.06282167e-05    -1.12324808e-05 
   -9.99603833e-05     6.58842358e-06    -1.01202744e-05 
   -1.16223394e-04     4.74896584e-06    -1.53083164e-05 
   -1.38619730e-04     3.85609908e-07    -2.94830848e-05 
   -1.31343828e-04     3.21411947e-06     3.28051874e-05 
   -1.08189951e-04     3.07695580e-06     1.93455958e-05 
   -9.09678516e-05     4.56261196e-06     1.25432322e-05 
   -7.76162356e-05     4.66877464e-06     1.14234212e-05 
   -6.82663695e-05     5.91610646e-06     5.37599339e-06 
   -6.82662107e-05     5.92847732e-06    -5.39877008e-06 
   -7.76176377e-05     4.66941710e-06    -1.14338851e-05 
   -9.09708176e-05     4.56539110e-06    -1.25577445e-05 
   -1.08194890e-04     3.07925685e-06    -1.93607296e-05 
   -1.31349785e-04     3.22202387e-06    -3.28183498e-05 
   -1.31343828e-04    -3.21411947e-06     3.28051874e-05 
   -1.08189951e-04    -3.07695580e-06     1.93455958e-05 
   -9.09678516e-05    -4.56261196e-06     1.25432322e-05 
   -7.76162356e-05    -4.66877464e-06     1.14234212e-05 
   -6.82663695e-05    -5.91610646e-06     5.37599339e-06 
   -6.82662107e-05    -5.92847732e-06    -5.39877008e-06 
   -7.76176377e-05    -4.66941710e-06    -1.14338851e-05 
   -9.09708176e-05    -4.56539110e-06    -1.25577445e-05 
   -1.08194890e-04    -3.07925685e-06    -1.93607296e-05 
   -1.31349785e-04    -3.22202387e-06    -3.28183498e-05 
   -1.38613462e-04    -3.80989586e-07     2.94703306e-05 
   -1.16218052e-04    -4.74556190e-06     1.52951871e-05 
   -9.99572552e-05    -6.58868723e-06     1.01051841e-05 
   -8.67740419e-05    -1.06123231e-05     1.12055901e-05 
   -7.78277505e-05    -1.09362049e-05     4.71441235e-06 
   -7.78282087e-05    -1.09346161e-05    -4.72680778e-06 
   -8.67735614e-05    -1.06282167e-05    -1.12324808e-05 
   -9.99603833e-05    -6.58842358e-06    -1.01202744e-05 
   -1.16223394e-04    -4.74896584e-06    -1.53083164e-05 
   -1.38619730e-04    -3.85609908e-07    -2.94830848e-05 
   -1.50573296e-04    -2.01129686e-06     2.38822784e-05 
   -1.28857648e-04    -2.28894616e-06     1.18033673e-05 
   -1.13364318e-04    -8.06346709e-06     8.41441221e-06 
   -1.00219917e-04    -9.87011561e-06     1.01306108e-05 
   -9.13405952e-05    -1.28736822e-05     3.30872700e-06 
   -9.13414463e-05    -1.28733135e-05    -3.32320341e-06 
   -1.00221795e-04    -9.86938082e-06    -1.01462872e-05 
   -1.13363643e-04    -8.07303016e-06    -8.43939571e-06 
   -1.28863726e-04    -2.28655160e-06    -1.18175608e-05 
   -1.50579751e-04    -2.01958374e-06    -2.38948072e-05 
   -1.63102517e-04    -8.71036698e-08     1.83624624e-05 
   -1.42584335e-04    -6.68435121e-06     6.79049046e-06 
   -1.29005817e-04    -8.95887940e-06     3.14142974e-06 
   -1.16737017e-04    -1.57599125e-05     8.37735127e-06 
   -1.08747110e-04    -1.86211701e-05     3.14756683e-06 
   -1.08747629e-04    -1.86174498e-05    -3.16186301e-06 
   -1.16739280e-04    -1.57606337e-05    -8.39218534e-06 
   -1.29009770e-04    -8.95300302e-06    -3.15208026e-06 
   -1.42582094e-04    -6.69741897e-06    -6.81571441e-06 
   -1.63109754e-04    -9.07607845e-08    -1.83740291e-05 
   -1.78079103e-04    -1.86172433e-05     1.69339127e-05 
   -1.66725068e-04    -1.69727835e-05     9.96611072e-06 
   -1.51223445e-04    -2.32475122e-05     4.74026974e-07 
   -1.39229060e-04    -2.84136501e-05     1.00537684e-05 
   -1.31606637e-04    -3.15518753e-05     3.42877350e-07 
   -1.31607003e-04    -3.15510847e-05    -3.63733274e-07 
   -1.39231735e-04    -2.84113515e-05    -1.00760359e-05 
   -1.51226393e-04    -2.32454069e-05    -4.92709090e-07 
   -1.66734185e-04    -1.69691736e-05    -9.99000474e-06 
   -1.78029466e-04    -1.85899563e-05    -1.69419070e-05 
   -1.43021030e-04    -1.31935636e-06     2.36113782e-06 
   -1.22980361e-04    -9.99378189e-07    -7.29284656e-06 
   -1.15539274e-04     4.41688978e-06    -5.52918994e-06 
   -1.01759734e-04     9.75616474e-06     7.39694007e-07 
   -9.64908096e-05     1.36861891e-05     7.51199693e-07 
   -9.64957169e-05     1.36858077e-05    -7.57863461e-07 
   -1.01757337e-04     9.75547610e-06    -7.46196488e-07 
   -1.15547726e-04     4.41566643e-06     5.52404505e-06 
   -1.22979433e-04    -1.00272989e-06     7.29003448e-06 
   -1.43009401e-04    -1.31754600e-06    -2.36504873e-06 
   -1.28114481e-04    -1.16840391e-05    -2.39765747e-07 
   -1.11455014e-04    -1.91266427e-06    -5.97038911e-06 
   -1.00793696e-04    -1.05421840e-06    -2.04860963e-06 
   -8.82906887e-05     6.00325852e-06     4.89936973e-07 
   -8.22072924e-05     7.86681001e-06     3.22053035e-06 
   -8.22119333e-05     7.86144322e-06    -3.22579373e-06 
   -8.82883493e-05     6.00615162e-06    -4.93199149e-07 
   -1.00798948e-04    -1.06243035e-06     2.04231937e-06 
   -1.11463571e-04    -1.91727178e-06     5.98106656e-06 
   -1.28127251e-04    -1.16909932e-05     2.37580808e-07 
   -1.11941588e-04    -4.78831362e-06     4.95074804e-06 
   -9.81524262e-05    -5.21521842e-06     2.68944499e-06 
   -8.59588082e-05     5.39243990e-07     5.76841299e-07 
   -7.49845671e-05     1.45316791e-06     4.13992515e-06 
   -6.74337825e-05     4.98143529e-06     2.01408358e-06 
   -6.74361216e-05     4.98188069e-06    -2.01972890e-06 
   -7.49825124e-05     1.45082825e-06    -4.14678305e-06 
   -8.59671585e-05     5.39541441e-07    -5.82809592e-07 
   -9.81517467e-05    -5.21793086e-06    -2.69453191e-06 
   -1.11946924e-04    -4.78119403e-06    -4.95677864e-06 
   -1.03628948e-04    -5.18551312e-06     1.05264445e-05 
   -8.95051613e-05    -4.63890334e-07     4.87865694e-06 
   -7.50291314e-05     1.27569528e-06     2.40894514e-06 
   -6.44146139e-05     5.12648694e-06     5.15824377e-06 
   -5.60967389e-05     5.48112327e-06     3.56973339e-06 
   -5.60977709e-05     5.47932060e-06    -3.57541216e-06 
   -6.44151398e-05     5.12988929e-06    -5.16505358e-06 
   -7.50309063e-05     1.27381004e-06    -2.41604402e-06 
   -8.95088511e-05    -4.61668547e-07    -4.88174232e-06 
   -1.03636689e-04    -5.18538309e-06    -1.05335521e-05 
   -9.58837024e-05     1.77260203e-06     1.44531779e-05 
   -8.17834258e-05     1.17689634e-06     8.94661589e-06 
   -6.69355548e-05     3.04887587e-06     4.43871183e-06 
   -5.64242657e-05     2.99119931e-06     5.88326488e-06 
   -4.78347699e-05     4.10507077e-06     3.74152818e-06 
   -4.78376740e-05     4.10897466e-06    -3.74857498e-06 
   -5.64234648e-05     2.99169371e-06    -5.88766225e-06 
   -6.69376861e-05     3.05220160e-06    -4.44577834e-06 
   -8.17852767e-05     1.17768167e-06    -8.95339642e-06 
   -9.58881578e-05     1.78028370e-06    -1.44611065e-05 
   -9.58837024e-05    -1.77260203e-06     1.44531779e-05 
   -8.17834258e-05    -1.17689634e-06     8.94661589e-06 
   -6.69355548e-05    -3.04887587e-06     4.43871183e-06 
   -5.64242657e-05    -2.99119931e-06     5.88326488e-06 
   -4.78347699e-05    -4.10507077e-06     3.74152818e-06 
   -4.78376740e-05    -4.10897466e-06    -3.74857498e-06 
   -5.64234648e-05    -2.99169371e-06    -5.88766225e-06 
   -6.69376861e-05    -3.05220160e-06    -4.44577834e-06 
   -8.17852767e-05    -1.17768167e-06    -8.95339642e-06 
   -9.58881578e-05    -1.78028370e-06    -1.44611065e-05 
   -1.03628948e-04     5.18551312e-06     1.05264445e-05 
   -8.95051613e-05     4.63890334e-07     4.87865694e-06 
   -7.50291314e-05    -1.27569528e-06     2.40894514e-06 
   -6.44146139e-05    -5.12648694e-06     5.15824377e-06 
   -5.60967389e-05    -5.48112327e-06     3.56973339e-06 
   -5.60977709e-05    -5.47932060e-06    -3.57541216e-06 
   -6.44151398e-05    -5.12988929e-06    -5.16505358e-06 
   -7.50309063e-05    -1.27381004e-06    -2.41604402e-06 
   -8.95088511e-05     4.61668547e-07    -4.88174232e-06 
   -1.03636689e-04     5.18538309e-06    -1.05335521e-05 
   -1.11941588e-04     4.78831362e-06     4.95074804e-06 
   -9.81524262e-05     5.21521842e-06     2.68944499e-06 
   -8.59588082e-05    -5.39243990e-07     5.76841299e-07 
   -7.49845671e-05    -1.45316791e-06     4.13992515e-06 
   -6.74337825e-05    -4.98143529e-06     2.01408358e-06 
   -6.74361216e-05    -4.98188069e-06    -2.01972890e-06 
   -7.49825124e-05    -1.45082825e-06    -4.14678305e-06 
   -8.59671585e-05    -5.39541441e-07    -5.82809592e-07 
   -9.81517467e-05     5.21793086e-06    -2.69453191e-06 
   -1.11946924e-04     4.78119403e-06    -4.95677864e-06 
   -1.28114481e-04     1.16840391e-05    -2.39765747e-07 
   -1.11455014e-04     1.91266427e-06    -5.97038911e-06 
   -1.00793696e-04     1.05421840e-06    -2.04860963e-06 
   -8.82906887e-05    -6.00325852e-06     4.89936973e-07 
   -8.22072924e-05    -7.86681001e-06     3.22053035e-06 
   -8.22119333e-05    -7.86144322e-06    -3.22579373e-06 
   -8.82883493e-05    -6.00615162e-06    -4.93199149e-07 
   -1.00798948e-04     1.06243035e-06     2.04231937e-06 
   -1.11463571e-04     1.91727178e-06     5.98106656e-06 
   -1.28127251e-04     1.16909932e-05     2.37580808e-07 
   -1.43021030e-04     1.31935636e-06     2.36113782e-06 
   -1.22980361e-04     9.99378189e-07    -7.29284656e-06 
   -1.15539274e-04    -4.41688978e-06    -5.52918994e-06 
   -1.01759734e-04    -9.75616474e-06     7.39694007e-07 
   -9.64908096e-05    -1.36861891e-05     7.51199693e-07 
   -9.64957169e-05    -1.36858077e-05    -7.57863461e-07 
   -1.01757337e-04    -9.75547610e-06    -7.46196488e-07 
   -1.15547726e-04    -4.41566643e-06     5.52404505e-06 
   -1.22979433e-04     1.00272989e-06     7.29003448e-06 
   -1.43009401e-04     1.31754600e-06    -2.36504873e-06 
   -1.06035324e-04    -1.43432485e-05    -1.00594051e-05 
   -9.78990562e-05    -1.32593797e-05    -1.65044541e-05 
   -8.50552708e-05    -5.39431201e-06    -1.43901824e-05 
   -7.93497810e-05     1.47431216e-07    -6.10467908e-06 
   -7.61892122e-05     4.15725381e-06    -3.53980015e-06 
   -7.61888655e-05     4.15625442e-06     3.53222315e-06 
   -7.93512288e-05     1.46546780e-07     6.09651539e-06 
   -8.50580047e-05    -5.39767982e-06     1.43835581e-05 
   -9.79053862e-05    -1.32610359e-05     1.64945769e-05 
   -1.06018451e-04    -1.43437473e-05     1.00544199e-05 
   -9.36295611e-05    -1.88138512e-05    -1.29085812e-05 
   -8.40403027e-05    -1.41470205e-05    -1.21805056e-05 
   -7.20648163e-05    -1.08419763e-05    -1.35108133e-05 
   -6.61194798e-05    -5.82551734e-06    -5.87590279e-06 
   -6.23479734e-05    -2.87841843e-06    -2.45337173e-06 
   -6.23475328e-05    -2.88117340e-06     2.44948203e-06 
   -6.61199756e-05    -5.82470994e-06     5.87036518e-06 
   -7.20675154e-05    -1.08457049e-05     1.35095967e-05 
   -8.40538038e-05    -1.41493151e-05     1.21784561e-05 
   -9.36319243e-05    -1.88083422e-05     1.29047048e-05 
   -8.49749758e-05    -1.52306192e-05    -4.84246479e-06 
   -7.35907242e-05    -1.49736136e-05    -9.73287259e-06 
   -6.28883591e-05    -8.03825670e-06    -7.45003052e-06 
   -5.57628934e-05    -6.47930010e-06    -3.59519214e-06 
   -5.18567187e-05    -3.06381347e-06    -1.81805726e-06 
   -5.18558329e-05    -3.06353966e-06     1.81194391e-06 
   -5.57644537e-05    -6.48043207e-06     3.58991001e-06 
   -6.28966565e-05    -8.04020326e-06     7.44630726e-06 
   -7.35969015e-05    -1.49783354e-05     9.72770308e-06 
   -8.49798613e-05    -1.52273513e-05     4.83961136e-06 
   -7.95472713e-05    -1.11873658e-05     8.22708993e-07 
   -6.59341886e-05    -8.68577136e-06    -5.87409260e-06 
   -5.55395726e-05    -5.81796325e-06    -5.76888659e-06 
   -4.80586018e-05    -1.90419698e-06    -1.70403230e-06 
   -4.42975844e-05    -2.02860347e-06    -6.10440921e-07 
   -4.42977580e-05    -2.03083330e-06     6.05041106e-07 
   -4.80607518e-05    -1.90133088e-06     1.69674311e-06 
   -5.55410221e-05    -5.81991091e-06     5.76204764e-06 
   -6.59356387e-05    -8.68356256e-06     5.86917703e-06 
   -7.95513616e-05    -1.11856427e-05    -8.28632341e-07 
   -7.69147058e-05    -2.89981956e-06     4.83117907e-06 
   -6.28049816e-05    -2.50078764e-06    -2.67889848e-06 
   -5.21879971e-05    -9.81335071e-07    -3.58703768e-06 
   -4.44671272e-05    -7.97500575e-07    -2.03396558e-06 
   -4.06079718e-05     3.80089941e-07     1.19230496e-07 
   -4.06074201e-05     3.82990346e-07    -1.26438518e-07 
   -4.44678527e-05    -7.98988735e-07     2.02898165e-06 
   -5.21887518e-05    -9.79533898e-07     3.57991628e-06 
   -6.28073660e-05    -2.50124583e-06     2.67204429e-06 
   -7.69184284e-05    -2.89674169e-06    -4.83762853e-06 
   -7.69147058e-05     2.89981956e-06     4.83117907e-06 
   -6.28049816e-05     2.50078764e-06    -2.67889848e-06 
   -5.21879971e-05     9.81335071e-07    -3.58703768e-06 
   -4.44671272e-05     7.97500575e-07    -2.03396558e-06 
   -4.06079718e-05    -3.80089941e-07     1.19230496e-07 
   -4.06074201e-05    -3.82990346e-07    -1.26438518e-07 
   -4.44678527e-05     7.98988735e-07     2.02898165e-06 
   -5.21887518e-05     9.79533898e-07     3.57991628e-06 
   -6.28073660e-05     2.50124583e-06     2.67204429e-06 
   -7.69184284e-05     2.89674169e-06    -4.83762853e-06 
   -7.95472713e-05     1.11873658e-05     8.22708993e-07 
   -6.59341886e-05     8.68577136e-06    -5.87409260e-06 
   -5.55395726e-05     5.81796325e-06    -5.76888659e-06 
   -4.80586018e-05     1.90419698e-06    -1.70403230e-06 
   -4.42975844e-05     2.02860347e-06    -6.10440921e-07 
   -4.42977580e-05     2.03083330e-06     6.05041106e-07 
   -4.80607518e-05     1.90133088e-06     1.69674311e-06 
   -5.55410221e-05     5.81991091e-06     5.76204764e-06 
   -6.59356387e-05     8.68356256e-06     5.86917703e-06 
   -7.95513616e-05     1.11856427e-05    -8.28632341e-07 
   -8.49749758e-05     1.52306192e-05    -4.84246479e-06 
   -7.35907242e-05     1.49736136e-05    -9.73287259e-06 
   -6.28883591e-05     8.03825670e-06    -7.45003052e-06 
   -5.57628934e-05     6.47930010e-06    -3.59519214e-06 
   -5.18567187e-05     3.06381347e-06    -1.81805726e-06 
   -5.18558329e-05     3.06353966e-06     1.81194391e-06 
   -5.57644537e-05     6.48043207e-06     3.58991001e-06 
   -6.28966565e-05     8.04020326e-06     7.44630726e-06 
   -7.35969015e-05     1.49783354e-05     9.72770308e-06 
   -8.49798613e-05     1.52273513e-05     4.83961136e-06 
   -9.36295611e-05     1.88138512e-05    -1.29085812e-05 
   -8.40403027e-05     1.41470205e-05    -1.21805056e-05 
   -7.20648163e-05     1.08419763e-05    -1.35108133e-05 
   -6.61194798e-05     5.82551734e-06    -5.87590279e-06 
   -6.23479734e-05     2.87841843e-06    -2.45337173e-06 
   -6.23475328e-05     2.88117340e-06     2.44948203e-06 
   -6.61199756e-05     5.82470994e-06     5.87036518e-06 
   -7.20675154e-05     1.08457049e-05     1.35095967e-05 
   -8.40538038e-05     1.41493151e-05     1.21784561e-05 
   -9.36319243e-05     1.88083422e-05     1.29047048e-05 
   -1.06035324e-04     1.43432485e-05    -1.00594051e-05 
   -9.78990562e-05     1.32593797e-05    -1.65044541e-05 
   -8.50552708e-05     5.39431201e-06    -1.43901824e-05 
   -7.93497810e-05    -1.47431216e-07    -6.10467908e-06 
   -7.61892122e-05    -4.15725381e-06    -3.53980015e-06 
   -7.61888655e-05    -4.15625442e-06     3.53222315e-06 
   -7.93512288e-05    -1.46546780e-07     6.09651539e-06 
   -8.50580047e-05     5.39767982e-06     1.43835581e-05 
   -9.79053862e-05     1.32610359e-05     1.64945769e-05 
   -1.06018451e-04     1.43437473e-05     1.00544199e-05 
   -7.76981088e-05    -2.06093366e-05    -1.50713028e-05 
   -6.38733686e-05    -2.03602714e-05    -2.73537889e-05 
   -5.90077300e-05    -1.42091137e-05    -2.19392016e-05 
   -5.43223016e-05    -6.56007697e-06    -1.20361567e-05 
   -5.51247800e-05    -2.98864338e-06    -3.14674133e-06 
   -5.51270953e-05    -2.98896580e-06     3.13917200e-06 
   -5.43211174e-05    -6.56079733e-06     1.20299736e-05 
   -5.90112258e-05    -1.42109425e-05     2.19304609e-05 
   -6.38753144e-05    -2.03614254e-05     2.73488459e-05 
   -7.76895511e-05    -2.06073598e-05     1.50630464e-05 
   -6.64810089e-05    -2.99693426e-05    -2.01357447e-05 
   -5.32795547e-05    -2.20222688e-05    -2.16804298e-05 
   -4.71504584e-05    -2.01372431e-05    -2.06676611e-05 
   -4.24574242e-05    -1.42826991e-05    -1.17875234e-05 
   -4.28725125e-05    -1.05887925e-05    -2.27618084e-06 
   -4.28736120e-05    -1.05907200e-05     2.27117155e-06 
   -4.24580250e-05    -1.42832180e-05     1.17861372e-05 
   -4.71548796e-05    -2.01408699e-05     2.06635857e-05 
   -5.32882192e-05    -2.20252448e-05     2.16824020e-05 
   -6.64873693e-05    -2.99715496e-05     2.01325841e-05 
   -5.88134897e-05    -2.42756104e-05    -1.38944654e-05 
   -4.61403213e-05    -2.20985390e-05    -2.01106968e-05 
   -3.98732985e-05    -1.54220163e-05    -1.42436505e-05 
   -3.57312650e-05    -1.39221755e-05    -8.91341114e-06 
   -3.63895664e-05    -1.07553085e-05    -2.05871136e-06 
   -3.63908441e-05    -1.07559882e-05     2.05379915e-06 
   -3.57310821e-05    -1.39234487e-05     8.91031130e-06 
   -3.98801814e-05    -1.54225184e-05     1.42380975e-05 
   -4.61420880e-05    -2.21007201e-05     2.01089365e-05 
   -5.88162371e-05    -2.42727426e-05     1.38912078e-05 
   -5.55306032e-05    -1.54903222e-05    -5.89879806e-06 
   -4.25560575e-05    -1.28894320e-05    -1.37276843e-05 
   -3.63890347e-05    -1.01752768e-05    -1.36982402e-05 
   -3.20147654e-05    -6.09363676e-06    -5.98271579e-06 
   -3.21565004e-05    -6.13014013e-06    -1.31760701e-06 
   -3.21575996e-05    -6.13114732e-06     1.31263978e-06 
   -3.20174079e-05    -6.09378965e-06     5.97757686e-06 
   -3.63914418e-05    -1.01782243e-05     1.36921578e-05 
   -4.25577903e-05    -1.28900147e-05     1.37245188e-05 
   -5.55331478e-05    -1.54912999e-05     5.89467772e-06 
   -5.52431383e-05    -3.59011906e-06    -2.30111390e-06 
   -4.30792209e-05    -3.25174975e-06    -1.02691915e-05 
   -3.63449455e-05    -2.16312746e-06    -1.15263923e-05 