# vtk DataFile Version 2.0 
generated by Lattice Boltzmann Method time =   1.21243557e+00
ASCII 
DATASET UNSTRUCTURED_GRID

POINTS   1000 FLOAT 
  0.00000000e+00   0.00000000e+00   0.00000000e+00 
  0.00000000e+00   0.00000000e+00   1.00000000e-01 
  0.00000000e+00   0.00000000e+00   2.00000000e-01 
  0.00000000e+00   0.00000000e+00   3.00000000e-01 
  0.00000000e+00   0.00000000e+00   4.00000000e-01 
  0.00000000e+00   0.00000000e+00   5.00000000e-01 
  0.00000000e+00   0.00000000e+00   6.00000000e-01 
  0.00000000e+00   0.00000000e+00   7.00000000e-01 
  0.00000000e+00   0.00000000e+00   8.00000000e-01 
  0.00000000e+00   0.00000000e+00   9.00000000e-01 
  0.00000000e+00   1.00000000e-01   0.00000000e+00 
  0.00000000e+00   1.00000000e-01   1.00000000e-01 
  0.00000000e+00   1.00000000e-01   2.00000000e-01 
  0.00000000e+00   1.00000000e-01   3.00000000e-01 
  0.00000000e+00   1.00000000e-01   4.00000000e-01 
  0.00000000e+00   1.00000000e-01   5.00000000e-01 
  0.00000000e+00   1.00000000e-01   6.00000000e-01 
  0.00000000e+00   1.00000000e-01   7.00000000e-01 
  0.00000000e+00   1.00000000e-01   8.00000000e-01 
  0.00000000e+00   1.00000000e-01   9.00000000e-01 
  0.00000000e+00   2.00000000e-01   0.00000000e+00 
  0.00000000e+00   2.00000000e-01   1.00000000e-01 
  0.00000000e+00   2.00000000e-01   2.00000000e-01 
  0.00000000e+00   2.00000000e-01   3.00000000e-01 
  0.00000000e+00   2.00000000e-01   4.00000000e-01 
  0.00000000e+00   2.00000000e-01   5.00000000e-01 
  0.00000000e+00   2.00000000e-01   6.00000000e-01 
  0.00000000e+00   2.00000000e-01   7.00000000e-01 
  0.00000000e+00   2.00000000e-01   8.00000000e-01 
  0.00000000e+00   2.00000000e-01   9.00000000e-01 
  0.00000000e+00   3.00000000e-01   0.00000000e+00 
  0.00000000e+00   3.00000000e-01   1.00000000e-01 
  0.00000000e+00   3.00000000e-01   2.00000000e-01 
  0.00000000e+00   3.00000000e-01   3.00000000e-01 
  0.00000000e+00   3.00000000e-01   4.00000000e-01 
  0.00000000e+00   3.00000000e-01   5.00000000e-01 
  0.00000000e+00   3.00000000e-01   6.00000000e-01 
  0.00000000e+00   3.00000000e-01   7.00000000e-01 
  0.00000000e+00   3.00000000e-01   8.00000000e-01 
  0.00000000e+00   3.00000000e-01   9.00000000e-01 
  0.00000000e+00   4.00000000e-01   0.00000000e+00 
  0.00000000e+00   4.00000000e-01   1.00000000e-01 
  0.00000000e+00   4.00000000e-01   2.00000000e-01 
  0.00000000e+00   4.00000000e-01   3.00000000e-01 
  0.00000000e+00   4.00000000e-01   4.00000000e-01 
  0.00000000e+00   4.00000000e-01   5.00000000e-01 
  0.00000000e+00   4.00000000e-01   6.00000000e-01 
  0.00000000e+00   4.00000000e-01   7.00000000e-01 
  0.00000000e+00   4.00000000e-01   8.00000000e-01 
  0.00000000e+00   4.00000000e-01   9.00000000e-01 
  0.00000000e+00   5.00000000e-01   0.00000000e+00 
  0.00000000e+00   5.00000000e-01   1.00000000e-01 
  0.00000000e+00   5.00000000e-01   2.00000000e-01 
  0.00000000e+00   5.00000000e-01   3.00000000e-01 
  0.00000000e+00   5.00000000e-01   4.00000000e-01 
  0.00000000e+00   5.00000000e-01   5.00000000e-01 
  0.00000000e+00   5.00000000e-01   6.00000000e-01 
  0.00000000e+00   5.00000000e-01   7.00000000e-01 
  0.00000000e+00   5.00000000e-01   8.00000000e-01 
  0.00000000e+00   5.00000000e-01   9.00000000e-01 
  0.00000000e+00   6.00000000e-01   0.00000000e+00 
  0.00000000e+00   6.00000000e-01   1.00000000e-01 
  0.00000000e+00   6.00000000e-01   2.00000000e-01 
  0.00000000e+00   6.00000000e-01   3.00000000e-01 
  0.00000000e+00   6.00000000e-01   4.00000000e-01 
  0.00000000e+00   6.00000000e-01   5.00000000e-01 
  0.00000000e+00   6.00000000e-01   6.00000000e-01 
  0.00000000e+00   6.00000000e-01   7.00000000e-01 
  0.00000000e+00   6.00000000e-01   8.00000000e-01 
  0.00000000e+00   6.00000000e-01   9.00000000e-01 
  0.00000000e+00   7.00000000e-01   0.00000000e+00 
  0.00000000e+00   7.00000000e-01   1.00000000e-01 
  0.00000000e+00   7.00000000e-01   2.00000000e-01 
  0.00000000e+00   7.00000000e-01   3.00000000e-01 
  0.00000000e+00   7.00000000e-01   4.00000000e-01 
  0.00000000e+00   7.00000000e-01   5.00000000e-01 
  0.00000000e+00   7.00000000e-01   6.00000000e-01 
  0.00000000e+00   7.00000000e-01   7.00000000e-01 
  0.00000000e+00   7.00000000e-01   8.00000000e-01 
  0.00000000e+00   7.00000000e-01   9.00000000e-01 
  0.00000000e+00   8.00000000e-01   0.00000000e+00 
  0.00000000e+00   8.00000000e-01   1.00000000e-01 
  0.00000000e+00   8.00000000e-01   2.00000000e-01 
  0.00000000e+00   8.00000000e-01   3.00000000e-01 
  0.00000000e+00   8.00000000e-01   4.00000000e-01 
  0.00000000e+00   8.00000000e-01   5.00000000e-01 
  0.00000000e+00   8.00000000e-01   6.00000000e-01 
  0.00000000e+00   8.00000000e-01   7.00000000e-01 
  0.00000000e+00   8.00000000e-01   8.00000000e-01 
  0.00000000e+00   8.00000000e-01   9.00000000e-01 
  0.00000000e+00   9.00000000e-01   0.00000000e+00 
  0.00000000e+00   9.00000000e-01   1.00000000e-01 
  0.00000000e+00   9.00000000e-01   2.00000000e-01 
  0.00000000e+00   9.00000000e-01   3.00000000e-01 
  0.00000000e+00   9.00000000e-01   4.00000000e-01 
  0.00000000e+00   9.00000000e-01   5.00000000e-01 
  0.00000000e+00   9.00000000e-01   6.00000000e-01 
  0.00000000e+00   9.00000000e-01   7.00000000e-01 
  0.00000000e+00   9.00000000e-01   8.00000000e-01 
  0.00000000e+00   9.00000000e-01   9.00000000e-01 
  1.00000000e-01   0.00000000e+00   0.00000000e+00 
  1.00000000e-01   0.00000000e+00   1.00000000e-01 
  1.00000000e-01   0.00000000e+00   2.00000000e-01 
  1.00000000e-01   0.00000000e+00   3.00000000e-01 
  1.00000000e-01   0.00000000e+00   4.00000000e-01 
  1.00000000e-01   0.00000000e+00   5.00000000e-01 
  1.00000000e-01   0.00000000e+00   6.00000000e-01 
  1.00000000e-01   0.00000000e+00   7.00000000e-01 
  1.00000000e-01   0.00000000e+00   8.00000000e-01 
  1.00000000e-01   0.00000000e+00   9.00000000e-01 
  1.00000000e-01   1.00000000e-01   0.00000000e+00 
  1.00000000e-01   1.00000000e-01   1.00000000e-01 
  1.00000000e-01   1.00000000e-01   2.00000000e-01 
  1.00000000e-01   1.00000000e-01   3.00000000e-01 
  1.00000000e-01   1.00000000e-01   4.00000000e-01 
  1.00000000e-01   1.00000000e-01   5.00000000e-01 
  1.00000000e-01   1.00000000e-01   6.00000000e-01 
  1.00000000e-01   1.00000000e-01   7.00000000e-01 
  1.00000000e-01   1.00000000e-01   8.00000000e-01 
  1.00000000e-01   1.00000000e-01   9.00000000e-01 
  1.00000000e-01   2.00000000e-01   0.00000000e+00 
  1.00000000e-01   2.00000000e-01   1.00000000e-01 
  1.00000000e-01   2.00000000e-01   2.00000000e-01 
  1.00000000e-01   2.00000000e-01   3.00000000e-01 
  1.00000000e-01   2.00000000e-01   4.00000000e-01 
  1.00000000e-01   2.00000000e-01   5.00000000e-01 
  1.00000000e-01   2.00000000e-01   6.00000000e-01 
  1.00000000e-01   2.00000000e-01   7.00000000e-01 
  1.00000000e-01   2.00000000e-01   8.00000000e-01 
  1.00000000e-01   2.00000000e-01   9.00000000e-01 
  1.00000000e-01   3.00000000e-01   0.00000000e+00 
  1.00000000e-01   3.00000000e-01   1.00000000e-01 
  1.00000000e-01   3.00000000e-01   2.00000000e-01 
  1.00000000e-01   3.00000000e-01   3.00000000e-01 
  1.00000000e-01   3.00000000e-01   4.00000000e-01 
  1.00000000e-01   3.00000000e-01   5.00000000e-01 
  1.00000000e-01   3.00000000e-01   6.00000000e-01 
  1.00000000e-01   3.00000000e-01   7.00000000e-01 
  1.00000000e-01   3.00000000e-01   8.00000000e-01 
  1.00000000e-01   3.00000000e-01   9.00000000e-01 
  1.00000000e-01   4.00000000e-01   0.00000000e+00 
  1.00000000e-01   4.00000000e-01   1.00000000e-01 
  1.00000000e-01   4.00000000e-01   2.00000000e-01 
  1.00000000e-01   4.00000000e-01   3.00000000e-01 
  1.00000000e-01   4.00000000e-01   4.00000000e-01 
  1.00000000e-01   4.00000000e-01   5.00000000e-01 
  1.00000000e-01   4.00000000e-01   6.00000000e-01 
  1.00000000e-01   4.00000000e-01   7.00000000e-01 
  1.00000000e-01   4.00000000e-01   8.00000000e-01 
  1.00000000e-01   4.00000000e-01   9.00000000e-01 
  1.00000000e-01   5.00000000e-01   0.00000000e+00 
  1.00000000e-01   5.00000000e-01   1.00000000e-01 
  1.00000000e-01   5.00000000e-01   2.00000000e-01 
  1.00000000e-01   5.00000000e-01   3.00000000e-01 
  1.00000000e-01   5.00000000e-01   4.00000000e-01 
  1.00000000e-01   5.00000000e-01   5.00000000e-01 
  1.00000000e-01   5.00000000e-01   6.00000000e-01 
  1.00000000e-01   5.00000000e-01   7.00000000e-01 
  1.00000000e-01   5.00000000e-01   8.00000000e-01 
  1.00000000e-01   5.00000000e-01   9.00000000e-01 
  1.00000000e-01   6.00000000e-01   0.00000000e+00 
  1.00000000e-01   6.00000000e-01   1.00000000e-01 
  1.00000000e-01   6.00000000e-01   2.00000000e-01 
  1.00000000e-01   6.00000000e-01   3.00000000e-01 
  1.00000000e-01   6.00000000e-01   4.00000000e-01 
  1.00000000e-01   6.00000000e-01   5.00000000e-01 
  1.00000000e-01   6.00000000e-01   6.00000000e-01 
  1.00000000e-01   6.00000000e-01   7.00000000e-01 
  1.00000000e-01   6.00000000e-01   8.00000000e-01 
  1.00000000e-01   6.00000000e-01   9.00000000e-01 
  1.00000000e-01   7.00000000e-01   0.00000000e+00 
  1.00000000e-01   7.00000000e-01   1.00000000e-01 
  1.00000000e-01   7.00000000e-01   2.00000000e-01 
  1.00000000e-01   7.00000000e-01   3.00000000e-01 
  1.00000000e-01   7.00000000e-01   4.00000000e-01 
  1.00000000e-01   7.00000000e-01   5.00000000e-01 
  1.00000000e-01   7.00000000e-01   6.00000000e-01 
  1.00000000e-01   7.00000000e-01   7.00000000e-01 
  1.00000000e-01   7.00000000e-01   8.00000000e-01 
  1.00000000e-01   7.00000000e-01   9.00000000e-01 
  1.00000000e-01   8.00000000e-01   0.00000000e+00 
  1.00000000e-01   8.00000000e-01   1.00000000e-01 
  1.00000000e-01   8.00000000e-01   2.00000000e-01 
  1.00000000e-01   8.00000000e-01   3.00000000e-01 
  1.00000000e-01   8.00000000e-01   4.00000000e-01 
  1.00000000e-01   8.00000000e-01   5.00000000e-01 
  1.00000000e-01   8.00000000e-01   6.00000000e-01 
  1.00000000e-01   8.00000000e-01   7.00000000e-01 
  1.00000000e-01   8.00000000e-01   8.00000000e-01 
[...]
POINT_DATA   1000
FIELD solution 1
u 3   1000 DOUBLE
   -6.87285779e-05    -8.98678107e-06    -1.92530186e-06 
   -6.89500716e-05    -4.92567533e-06    -2.44298533e-06 
   -7.30961661e-05    -4.22801375e-06    -2.21428037e-06 
   -7.72953732e-05    -2.30171557e-06    -2.19680456e-07 
   -8.02873161e-05    -2.64239526e-06    -1.82106806e-06 
   -8.02885048e-05    -2.64160920e-06     1.80799959e-06 
   -7.72973026e-05    -2.30391311e-06     2.05750087e-07 
   -7.31006027e-05    -4.22834068e-06     2.20072659e-06 
   -6.89587512e-05    -4.93102962e-06     2.42263423e-06 
   -6.86232701e-05    -9.06168360e-06     1.94104532e-06 
   -6.75813562e-05    -6.06732750e-06    -4.18276747e-06 
   -6.48995039e-05    -5.36508474e-06    -4.88830400e-06 
   -7.01419768e-05    -4.69214798e-06    -2.22449331e-06 
   -7.45118362e-05    -3.67732537e-06    -1.71783618e-06 
   -7.76621015e-05    -3.96194835e-06    -1.24786559e-06 
   -7.76628844e-05    -3.96348877e-06     1.23625689e-06 
   -7.45142912e-05    -3.67598134e-06     1.70661001e-06 
   -7.01466325e-05    -4.69424182e-06     2.21140529e-06 
   -6.48994616e-05    -5.33266115e-06     4.84746557e-06 
   -6.75912472e-05    -6.05906694e-06     4.17284892e-06 
   -7.30366014e-05    -1.11951351e-06    -4.14612436e-06 
   -7.01878005e-05    -2.66363738e-06    -3.68563037e-06 
   -7.54415132e-05    -2.90575269e-06    -2.86018440e-06 
   -7.98137104e-05    -2.58991834e-06    -1.47074623e-06 
   -8.26309561e-05    -2.98987760e-06    -8.46076528e-07 
   -8.26318192e-05    -2.98963319e-06     8.34558125e-07 
   -7.98154325e-05    -2.59129536e-06     1.45885935e-06 
   -7.54409397e-05    -2.87507859e-06     2.82087697e-06 
   -7.01935324e-05    -2.65755833e-06     3.67464551e-06 
   -7.30440547e-05    -1.11220147e-06     4.13097084e-06 
   -7.72687421e-05    -2.12436927e-06    -2.29363845e-06 
   -7.44260345e-05    -2.36374873e-06    -3.93126778e-06 
   -7.97541983e-05    -2.52660138e-06    -2.60380872e-06 
   -8.35364393e-05    -3.46460336e-06    -3.51897580e-06 
   -8.74645570e-05    -2.62778369e-06    -1.27872126e-06 
   -8.74651916e-05    -2.62915743e-06     1.26804405e-06 
   -8.35360367e-05    -3.44028125e-06     3.48524987e-06 
   -7.97567076e-05    -2.52490089e-06     2.59488324e-06 
   -7.44301473e-05    -2.36261373e-06     3.91908449e-06 
   -7.72739436e-05    -2.12175103e-06     2.27843559e-06 
   -8.03544796e-05     8.29404158e-08    -2.80703025e-06 
   -7.74875674e-05    -9.78379445e-07    -3.79352846e-06 
   -8.25579765e-05    -3.28120693e-07    -3.19737381e-06 
   -8.74445928e-05    -1.11409877e-06    -3.00933277e-06 
   -9.02130924e-05    -9.58206460e-07    -1.48288863e-06 
   -9.02130486e-05    -9.35293569e-07     1.45057211e-06 
   -8.74459187e-05    -1.11370759e-06     3.00037749e-06 
   -8.25604958e-05    -3.27737529e-07     3.18710635e-06 
   -7.74911879e-05    -9.77415085e-07     3.78065876e-06 
   -8.03593578e-05     8.41567001e-08     2.79066847e-06 
   -8.03544796e-05    -8.29404157e-08    -2.80703025e-06 
   -7.74875674e-05     9.78379445e-07    -3.79352846e-06 
   -8.25579765e-05     3.28120693e-07    -3.19737381e-06 
   -8.74445928e-05     1.11409877e-06    -3.00933277e-06 
   -9.02130924e-05     9.58206460e-07    -1.48288863e-06 
   -9.02130486e-05     9.35293569e-07     1.45057211e-06 
   -8.74459187e-05     1.11370759e-06     3.00037749e-06 
   -8.25604958e-05     3.27737529e-07     3.18710635e-06 
   -7.74911879e-05     9.77415085e-07     3.78065876e-06 
   -8.03593578e-05    -8.41567001e-08     2.79066847e-06 
   -7.72687421e-05     2.12436927e-06    -2.29363845e-06 
   -7.44260345e-05     2.36374873e-06    -3.93126778e-06 
   -7.97541983e-05     2.52660138e-06    -2.60380872e-06 
   -8.35364393e-05     3.46460336e-06    -3.51897580e-06 
   -8.74645570e-05     2.62778369e-06    -1.27872126e-06 
   -8.74651916e-05     2.62915743e-06     1.26804405e-06 
   -8.35360367e-05     3.44028125e-06     3.48524987e-06 
   -7.97567076e-05     2.52490089e-06     2.59488324e-06 
   -7.44301473e-05     2.36261373e-06     3.91908449e-06 
   -7.72739436e-05     2.12175103e-06     2.27843559e-06 
   -7.30366014e-05     1.11951351e-06    -4.14612436e-06 
   -7.01878005e-05     2.66363738e-06    -3.68563037e-06 
   -7.54415132e-05     2.90575269e-06    -2.86018440e-06 
   -7.98137104e-05     2.58991834e-06    -1.47074623e-06 
   -8.26309561e-05     2.98987760e-06    -8.46076528e-07 
   -8.26318192e-05     2.98963319e-06     8.34558125e-07 
   -7.98154325e-05     2.59129536e-06     1.45885935e-06 
   -7.54409397e-05     2.87507859e-06     2.82087697e-06 
   -7.01935324e-05     2.65755833e-06     3.67464551e-06 
   -7.30440547e-05     1.11220147e-06     4.13097084e-06 
   -6.75813562e-05     6.06732750e-06    -4.18276747e-06 
   -6.48995039e-05     5.36508474e-06    -4.88830400e-06 
   -7.01419768e-05     4.69214798e-06    -2.22449331e-06 
   -7.45118362e-05     3.67732537e-06    -1.71783618e-06 
   -7.76621015e-05     3.96194835e-06    -1.24786559e-06 
   -7.76628844e-05     3.96348877e-06     1.23625689e-06 
   -7.45142912e-05     3.67598134e-06     1.70661001e-06 
   -7.01466325e-05     4.69424182e-06     2.21140529e-06 
   -6.48994616e-05     5.33266115e-06     4.84746557e-06 
   -6.75912472e-05     6.05906694e-06     4.17284892e-06 
   -6.87285779e-05     8.98678107e-06    -1.92530186e-06 
   -6.89500716e-05     4.92567533e-06    -2.44298533e-06 
   -7.30961661e-05     4.22801375e-06    -2.21428037e-06 
   -7.72953732e-05     2.30171557e-06    -2.19680456e-07 
   -8.02873161e-05     2.64239526e-06    -1.82106806e-06 
   -8.02885048e-05     2.64160920e-06     1.80799959e-06 
   -7.72973026e-05     2.30391311e-06     2.05750087e-07 
   -7.31006027e-05     4.22834068e-06     2.20072659e-06 
   -6.89587512e-05     4.93102962e-06     2.42263423e-06 
   -6.86232701e-05     9.06168360e-06     1.94104532e-06 
   -4.91762460e-05    -2.13321305e-05    -1.49405778e-05 
   -4.73642884e-05    -1.59842384e-05    -1.08637301e-05 
   -5.06970220e-05    -1.53051138e-05    -2.53649533e-06 
   -5.38487352e-05    -1.40229143e-05    -1.57559116e-06 
   -5.71808075e-05    -1.46524932e-05    -6.26384544e-07 
   -5.71829545e-05    -1.46521914e-05     6.25607560e-07 
   -5.38493751e-05    -1.40232380e-05     1.57494399e-06 
   -5.07033156e-05    -1.53049156e-05     2.53601110e-06 
   -4.73644822e-05    -1.59891510e-05     1.08604913e-05 
   -4.91400716e-05    -2.13399467e-05     1.49424368e-05 
   -4.95390017e-05    -1.29010511e-05    -1.56497367e-05 
   -4.95874013e-05    -1.07604106e-05    -1.17391375e-05 
   -5.11931031e-05    -9.12308223e-06    -2.27249001e-06 
   -5.44715721e-05    -8.02367874e-06    -2.01607559e-06 
   -5.77728828e-05    -8.53814370e-06     3.58008229e-08 
   -5.77746884e-05    -8.53974558e-06    -3.63794167e-08 
   -5.44724609e-05    -8.02221817e-06     2.01638273e-06 
   -5.11933777e-05    -9.12590836e-06     2.26918616e-06 
   -4.96038998e-05    -1.07691373e-05     1.17477183e-05 
   -4.95462982e-05    -1.29019852e-05     1.56466453e-05 
   -4.95426421e-05    -1.96271948e-06    -1.52869935e-05 
   -5.04812587e-05    -3.41090176e-06    -7.95565087e-06 
   -5.18100599e-05    -3.71413299e-06    -3.90037294e-06 
   -5.61545288e-05    -2.69398680e-06    -1.60402053e-06 
   -5.94135674e-05    -2.93753102e-06    -1.27838468e-07 
   -5.94146633e-05    -2.93722466e-06     1.26143265e-07 
   -5.61534455e-05    -2.69544443e-06     1.60056412e-06 
   -5.18159113e-05    -3.71202212e-06     3.89595320e-06 
   -5.04789973e-05    -3.40989291e-06     7.95070585e-06 
   -4.95488480e-05    -1.95994853e-06     1.52772791e-05 
   -5.45189482e-05    -2.42428842e-06    -1.40046775e-05 
   -5.49858224e-05    -1.89573002e-06    -8.53368309e-06 
   -5.62139513e-05    -2.44324966e-06    -2.52865693e-06 
   -6.13588270e-05    -3.15596338e-06    -3.32318817e-06 
   -6.49481186e-05    -1.57422608e-06    -3.36626629e-07 
   -6.49477188e-05    -1.57518851e-06     3.33766602e-07 
   -6.13610754e-05    -3.15291128e-06     3.31782604e-06 
   -5.62136008e-05    -2.44324818e-06     2.52553456e-06 
   -5.49879576e-05    -1.89691613e-06     8.52802618e-06 
   -5.45242188e-05    -2.42595797e-06     1.39942968e-05 
   -5.68940523e-05     4.38184267e-07    -1.46522143e-05 
   -5.76738450e-05    -3.67297499e-07    -8.17545239e-06 
   -5.92580052e-05     3.03267147e-07    -3.18660231e-06 
   -6.50551430e-05    -4.18124924e-07    -1.93948619e-06 
   -6.85064375e-05    -2.21548024e-07    -6.38755251e-07 
   -6.85077871e-05    -2.17511771e-07     6.32078185e-07 
   -6.50548033e-05    -4.17717650e-07     1.93678112e-06 
   -5.92592411e-05     3.03462097e-07     3.18301211e-06 
   -5.76748076e-05    -3.67763958e-07     8.16856088e-06 
   -5.68978021e-05     4.39021896e-07     1.46412552e-05 
   -5.68940523e-05    -4.38184267e-07    -1.46522143e-05 
   -5.76738450e-05     3.67297499e-07    -8.17545239e-06 
   -5.92580052e-05    -3.03267147e-07    -3.18660231e-06 
   -6.50551430e-05     4.18124924e-07    -1.93948619e-06 
   -6.85064375e-05     2.21548024e-07    -6.38755251e-07 
   -6.85077871e-05     2.17511771e-07     6.32078185e-07 
   -6.50548033e-05     4.17717650e-07     1.93678112e-06 
   -5.92592411e-05    -3.03462097e-07     3.18301211e-06 
   -5.76748076e-05     3.67763958e-07     8.16856088e-06 
   -5.68978021e-05    -4.39021896e-07     1.46412552e-05 
   -5.45189482e-05     2.42428842e-06    -1.40046775e-05 
   -5.49858224e-05     1.89573002e-06    -8.53368309e-06 
   -5.62139513e-05     2.44324966e-06    -2.52865693e-06 
   -6.13588270e-05     3.15596338e-06    -3.32318817e-06 
   -6.49481186e-05     1.57422608e-06    -3.36626629e-07 
   -6.49477188e-05     1.57518851e-06     3.33766602e-07 
   -6.13610754e-05     3.15291128e-06     3.31782604e-06 
   -5.62136008e-05     2.44324818e-06     2.52553456e-06 
   -5.49879576e-05     1.89691613e-06     8.52802618e-06 
   -5.45242188e-05     2.42595797e-06     1.39942968e-05 
   -4.95426421e-05     1.96271948e-06    -1.52869935e-05 
   -5.04812587e-05     3.41090176e-06    -7.95565087e-06 
   -5.18100599e-05     3.71413299e-06    -3.90037294e-06 
   -5.61545288e-05     2.69398680e-06    -1.60402053e-06 
   -5.94135674e-05     2.93753102e-06    -1.27838468e-07 
   -5.94146633e-05     2.93722466e-06     1.26143265e-07 
   -5.61534455e-05     2.69544443e-06     1.60056412e-06 
   -5.18159113e-05     3.71202212e-06     3.89595320e-06 
   -5.04789973e-05     3.40989291e-06     7.95070585e-06 
   -4.95488480e-05     1.95994853e-06     1.52772791e-05 
   -4.95390017e-05     1.29010511e-05    -1.56497367e-05 
   -4.95874013e-05     1.07604106e-05    -1.17391375e-05 
   -5.11931031e-05     9.12308223e-06    -2.27249001e-06 
   -5.44715721e-05     8.02367874e-06    -2.01607559e-06 
   -5.77728828e-05     8.53814370e-06     3.58008229e-08 
   -5.77746884e-05     8.53974558e-06    -3.63794168e-08 
   -5.44724609e-05     8.02221817e-06     2.01638273e-06 
   -5.11933777e-05     9.12590836e-06     2.26918616e-06 
   -4.96038998e-05     1.07691373e-05     1.17477183e-05 
   -4.95462982e-05     1.29019852e-05     1.56466453e-05 
   -4.91762460e-05     2.13321305e-05    -1.49405778e-05 
   -4.73642884e-05     1.59842384e-05    -1.08637301e-05 
   -5.06970220e-05     1.53051138e-05    -2.53649533e-06 
   -5.38487352e-05     1.40229143e-05    -1.57559116e-06 
   -5.71808075e-05     1.46524932e-05    -6.26384544e-07 
   -5.71829545e-05     1.46521914e-05     6.25607560e-07 
   -5.38493751e-05     1.40232380e-05     1.57494399e-06 
   -5.07033156e-05     1.53049156e-05     2.53601110e-06 
   -4.73644822e-05     1.59891510e-05     1.08604913e-05 
   -4.91400716e-05     2.13399467e-05     1.49424368e-05 
   -3.44040211e-05    -2.45155993e-05    -1.75794043e-05 
   -3.65989775e-05    -1.89545296e-05    -1.56480000e-05 
   -3.63454768e-05    -1.73594718e-05    -8.35316514e-06 
   -3.90162108e-05    -1.63840250e-05    -1.44511460e-06 
   -4.10848041e-05    -1.68674021e-05    -8.30204132e-07 
   -4.10860118e-05    -1.68673880e-05     8.28069352e-07 
   -3.90181845e-05    -1.63844667e-05     1.44266682e-06 
   -3.63445824e-05    -1.73620915e-05     8.34817250e-06 
   -3.65997687e-05    -1.89567270e-05     1.56404578e-05 
   -3.43760606e-05    -2.45179332e-05     1.75748457e-05 
   -3.51179839e-05    -1.56551121e-05    -1.88777409e-05 
   -3.69840399e-05    -1.58065447e-05    -1.49476388e-05 
   -3.67611073e-05    -1.36353973e-05    -8.51737489e-06 
   -3.85979084e-05    -1.34946864e-05    -1.68972423e-06 
   -4.05475289e-05    -1.39446108e-05    -6.04804182e-07 
   -4.05478467e-05    -1.39453102e-05     6.04679756e-07 
   -3.85977188e-05    -1.34946317e-05     1.68734523e-06 
   -3.67629482e-05    -1.36372915e-05     8.51864716e-06 
   -3.69967883e-05    -1.58094841e-05     1.49471488e-05 
   -3.51196974e-05    -1.56499065e-05     1.88734480e-05 
   -3.66027835e-05    -8.60657352e-06    -1.71491009e-05 
   -3.74059422e-05    -9.18523691e-06    -1.32896122e-05 
   -3.76371006e-05    -9.51406592e-06    -9.60174690e-06 
   -3.94024782e-05    -8.00664507e-06    -2.03327783e-06 
   -4.16964014e-05    -8.48539476e-06    -1.13951408e-07 
   -4.16956065e-05    -8.48522965e-06     1.11244349e-07 
   -3.94037029e-05    -8.00722713e-06     2.03279574e-06 
   -3.76446051e-05    -9.51580894e-06     9.60035162e-06 
   -3.74086803e-05    -9.18838790e-06     1.32856468e-05 
   -3.66053284e-05    -8.60306048e-06     1.71447789e-05 
   -3.90506508e-05    -2.13986746e-06    -1.62695638e-05 
   -3.86044814e-05    -2.22574026e-06    -1.35392367e-05 
   -3.94086669e-05    -2.67535121e-06    -8.04696433e-06 
   -4.18943712e-05    -3.17900602e-06    -3.23462743e-06 
   -4.46221637e-05    -1.54943450e-06    -3.04237260e-07 
   -4.46230337e-05    -1.55091455e-06     3.01803184e-07 
   -4.18973554e-05    -3.17592936e-06     3.22931801e-06 
   -3.94085888e-05    -2.67669454e-06     8.04292342e-06 
   -3.86029859e-05    -2.22433833e-06     1.35342132e-05 
   -3.90542907e-05    -2.13904477e-06     1.62619052e-05 
   -4.10745736e-05    -1.63736389e-07    -1.67365419e-05 
   -4.07287291e-05    -4.38879270e-07    -1.37467251e-05 
   -4.17725097e-05     2.07075438e-07    -8.65010212e-06 
   -4.46215033e-05    -3.58299784e-07    -1.96640312e-06 
   -4.78022928e-05     2.62350498e-08    -2.99025240e-07 
   -4.78029138e-05     3.04277811e-08     2.93360367e-07 
   -4.46214609e-05    -3.59965484e-07     1.96376294e-06 
   -4.17711064e-05     2.08238122e-07     8.64584484e-06 
   -4.07294521e-05    -4.39179101e-07     1.37401128e-05 
   -4.10775888e-05    -1.63515342e-07     1.67281782e-05 
   -4.10745736e-05     1.63736389e-07    -1.67365419e-05 
   -4.07287291e-05     4.38879270e-07    -1.37467251e-05 
   -4.17725097e-05    -2.07075438e-07    -8.65010212e-06 
   -4.46215033e-05     3.58299784e-07    -1.96640312e-06 
   -4.78022928e-05    -2.62350497e-08    -2.99025239e-07 
   -4.78029138e-05    -3.04277811e-08     2.93360367e-07 
   -4.46214609e-05     3.59965484e-07     1.96376294e-06 
   -4.17711064e-05    -2.08238122e-07     8.64584484e-06 
   -4.07294521e-05     4.39179101e-07     1.37401128e-05 
   -4.10775888e-05     1.63515342e-07     1.67281782e-05 
   -3.90506508e-05     2.13986746e-06    -1.62695638e-05 
   -3.86044814e-05     2.22574026e-06    -1.35392367e-05 
   -3.94086669e-05     2.67535121e-06    -8.04696433e-06 
   -4.18943712e-05     3.17900602e-06    -3.23462743e-06 
   -4.46221637e-05     1.54943450e-06    -3.04237260e-07 
   -4.46230337e-05     1.55091455e-06     3.01803184e-07 
   -4.18973554e-05     3.17592936e-06     3.22931801e-06 
   -3.94085888e-05     2.67669454e-06     8.04292342e-06 
   -3.86029859e-05     2.22433833e-06     1.35342132e-05 
   -3.90542907e-05     2.13904477e-06     1.62619052e-05 
   -3.66027835e-05     8.60657352e-06    -1.71491009e-05 
   -3.74059422e-05     9.18523691e-06    -1.32896122e-05 
   -3.76371006e-05     9.51406592e-06    -9.60174690e-06 
   -3.94024782e-05     8.00664507e-06    -2.03327783e-06 
   -4.16964014e-05     8.48539476e-06    -1.13951408e-07 
   -4.16956065e-05     8.48522965e-06     1.11244349e-07 
   -3.94037029e-05     8.00722713e-06     2.03279574e-06 
   -3.76446051e-05     9.51580894e-06     9.60035162e-06 
   -3.74086803e-05     9.18838790e-06     1.32856468e-05 
   -3.66053284e-05     8.60306048e-06     1.71447789e-05 
   -3.51179839e-05     1.56551121e-05    -1.88777409e-05 
   -3.69840399e-05     1.58065447e-05    -1.49476388e-05 
   -3.67611073e-05     1.36353973e-05    -8.51737489e-06 
   -3.85979084e-05     1.34946864e-05    -1.68972423e-06 
   -4.05475289e-05     1.39446108e-05    -6.04804182e-07 
   -4.05478467e-05     1.39453102e-05     6.04679756e-07 
   -3.85977188e-05     1.34946317e-05     1.68734523e-06 
   -3.67629482e-05     1.36372915e-05     8.51864716e-06 
   -3.69967883e-05     1.58094841e-05     1.49471488e-05 
   -3.51196974e-05     1.56499065e-05     1.88734480e-05 
   -3.44040211e-05     2.45155993e-05    -1.75794043e-05 
   -3.65989775e-05     1.89545296e-05    -1.56480000e-05 
   -3.63454768e-05     1.73594718e-05    -8.35316514e-06 
   -3.90162108e-05     1.63840250e-05    -1.44511460e-06 
   -4.10848041e-05     1.68674021e-05    -8.30204132e-07 
   -4.10860118e-05     1.68673880e-05     8.28069352e-07 
   -3.90181845e-05     1.63844667e-05     1.44266682e-06 
   -3.63445824e-05     1.73620915e-05     8.34817250e-06 
   -3.65997687e-05     1.89567270e-05     1.56404578e-05 
   -3.43760606e-05     2.45179332e-05     1.75748457e-05 
   -2.14804467e-05    -2.53990627e-05    -1.80246292e-05 
   -2.05348216e-05    -1.95316662e-05    -1.90139699e-05 
   -2.35060272e-05    -1.92489971e-05    -1.39258506e-05 
   -2.36685962e-05    -1.83905227e-05    -7.38991471e-06 
   -2.29560100e-05    -1.89352436e-05    -1.85430348e-06 
   -2.29570341e-05    -1.89354670e-05     1.85163550e-06 
   -2.36671145e-05    -1.83914811e-05     7.38580069e-06 
   -2.35053662e-05    -1.92502349e-05     1.39197721e-05 
   -2.05340606e-05    -1.95323565e-05     1.90087237e-05 
   -2.14609463e-05    -2.53981235e-05     1.80175724e-05 
   -2.10632647e-05    -1.90321743e-05    -1.94632327e-05 
   -2.19578875e-05    -1.84509770e-05    -1.82281743e-05 
   -2.35269875e-05    -1.72761346e-05    -1.35986099e-05 
   -2.36826331e-05    -1.78551394e-05    -7.37836268e-06 
   -2.20019242e-05    -1.81229493e-05    -1.75841701e-06 
   -2.20016680e-05    -1.81233554e-05     1.75662551e-06 
   -2.36837253e-05    -1.78556520e-05     7.37851885e-06 
   -2.35288355e-05    -1.72774068e-05     1.35974721e-05 
   -2.19672758e-05    -1.84524608e-05     1.82277825e-05 
   -2.10660297e-05    -1.90304001e-05     1.94587974e-05 
   -2.32905337e-05    -1.42833632e-05    -1.91818636e-05 
   -2.30843319e-05    -1.41412990e-05    -1.72033076e-05 
   -2.50180285e-05    -1.50089760e-05    -1.48085878e-05 
   -2.56480025e-05    -1.41320678e-05    -7.43946384e-06 
   -2.41945753e-05    -1.47500661e-05    -1.40794368e-06 
   -2.41956764e-05    -1.47506577e-05     1.40609655e-06 
   -2.56489564e-05    -1.41325624e-05     7.43881921e-06 
   -2.50248911e-05    -1.50093226e-05     1.48061343e-05 
   -2.30867985e-05    -1.41421635e-05     1.72007808e-05 
   -2.32932349e-05    -1.42793728e-05     1.91774761e-05 
   -2.40132256e-05    -7.51024233e-06    -1.81916245e-05 
   -2.37103913e-05    -7.33403734e-06    -1.76509130e-05 
   -2.58897295e-05    -7.78544218e-06    -1.42354513e-05 
   -2.70641112e-05    -8.41980763e-06    -8.51637503e-06 
   -2.55894183e-05    -6.85681947e-06    -1.94139974e-06 
   -2.55897147e-05    -6.85701155e-06     1.93984071e-06 
   -2.70677737e-05    -8.42043124e-06     8.51303616e-06 
   -2.58905495e-05    -7.78736535e-06     1.42319896e-05 
   -2.37125438e-05    -7.33560883e-06     1.76475466e-05 
   -2.40162857e-05    -7.50956957e-06     1.81860419e-05 
   -2.28362206e-05    -1.46194136e-06    -1.87398353e-05 
   -2.22127159e-05    -1.80376698e-06    -1.78341073e-05 
   -2.43000555e-05    -1.42956359e-06    -1.49752531e-05 