# vtk DataFile Version 2.0 
generated by Lattice Boltzmann Method time =   1.27017059e+00
ASCII 
DATASET UNSTRUCTURED_GRID

POINTS   1000 FLOAT 
  0.00000000e+00   0.00000000e+00   0.00000000e+00 
  0.00000000e+00   0.00000000e+00   1.00000000e-01 
  0.00000000e+00   0.00000000e+00   2.00000000e-01 
  0.00000000e+00   0.00000000e+00   3.00000000e-01 
  0.00000000e+00   0.00000000e+00   4.00000000e-01 
  0.00000000e+00   0.00000000e+00   5.00000000e-01 
  0.00000000e+00   0.00000000e+00   6.00000000e-01 
  0.00000000e+00   0.00000000e+00   7.00000000e-01 
  0.00000000e+00   0.00000000e+00   8.00000000e-01 
  0.00000000e+00   0.00000000e+00   9.00000000e-01 
  0.00000000e+00   1.00000000e-01   0.00000000e+00 
  0.00000000e+00   1.00000000e-01   1.00000000e-01 
  0.00000000e+00   1.00000000e-01   2.00000000e-01 
  0.00000000e+00   1.00000000e-01   3.00000000e-01 
  0.00000000e+00   1.00000000e-01   4.00000000e-01 
  0.00000000e+00   1.00000000e-01   5.00000000e-01 
  0.00000000e+00   1.00000000e-01   6.00000000e-01 
  0.00000000e+00   1.00000000e-01   7.00000000e-01 
  0.00000000e+00   1.00000000e-01   8.00000000e-01 
  0.00000000e+00   1.00000000e-01   9.00000000e-01 
  0.00000000e+00   2.00000000e-01   0.00000000e+00 
  0.00000000e+00   2.00000000e-01   1.00000000e-01 
  0.00000000e+00   2.00000000e-01   2.00000000e-01 
  0.00000000e+00   2.00000000e-01   3.00000000e-01 
  0.00000000e+00   2.00000000e-01   4.00000000e-01 
  0.00000000e+00   2.00000000e-01   5.00000000e-01 
  0.00000000e+00   2.00000000e-01   6.00000000e-01 
  0.00000000e+00   2.00000000e-01   7.00000000e-01 
  0.00000000e+00   2.00000000e-01   8.00000000e-01 
  0.00000000e+00   2.00000000e-01   9.00000000e-01 
  0.00000000e+00   3.00000000e-01   0.00000000e+00 
  0.00000000e+00   3.00000000e-01   1.00000000e-01 
  0.00000000e+00   3.00000000e-01   2.00000000e-01 
  0.00000000e+00   3.00000000e-01   3.00000000e-01 
  0.00000000e+00   3.00000000e-01   4.00000000e-01 
  0.00000000e+00   3.00000000e-01   5.00000000e-01 
  0.00000000e+00   3.00000000e-01   6.00000000e-01 
  0.00000000e+00   3.00000000e-01   7.00000000e-01 
  0.00000000e+00   3.00000000e-01   8.00000000e-01 
  0.00000000e+00   3.00000000e-01   9.00000000e-01 
  0.00000000e+00   4.00000000e-01   0.00000000e+00 
  0.00000000e+00   4.00000000e-01   1.00000000e-01 
  0.00000000e+00   4.00000000e-01   2.00000000e-01 
  0.00000000e+00   4.00000000e-01   3.00000000e-01 
  0.00000000e+00   4.00000000e-01   4.00000000e-01 
  0.00000000e+00   4.00000000e-01   5.00000000e-01 
  0.00000000e+00   4.00000000e-01   6.00000000e-01 
  0.00000000e+00   4.00000000e-01   7.00000000e-01 
  0.00000000e+00   4.00000000e-01   8.00000000e-01 
  0.00000000e+00   4.00000000e-01   9.00000000e-01 
  0.00000000e+00   5.00000000e-01   0.00000000e+00 
  0.00000000e+00   5.00000000e-01   1.00000000e-01 
  0.00000000e+00   5.00000000e-01   2.00000000e-01 
  0.00000000e+00   5.00000000e-01   3.00000000e-01 
  0.00000000e+00   5.00000000e-01   4.00000000e-01 
  0.00000000e+00   5.00000000e-01   5.00000000e-01 
  0.00000000e+00   5.00000000e-01   6.00000000e-01 
  0.00000000e+00   5.00000000e-01   7.00000000e-01 
  0.00000000e+00   5.00000000e-01   8.00000000e-01 
  0.00000000e+00   5.00000000e-01   9.00000000e-01 
  0.00000000e+00   6.00000000e-01   0.00000000e+00 
  0.00000000e+00   6.00000000e-01   1.00000000e-01 
  0.00000000e+00   6.00000000e-01   2.00000000e-01 
  0.00000000e+00   6.00000000e-01   3.00000000e-01 
  0.00000000e+00   6.00000000e-01   4.00000000e-01 
  0.00000000e+00   6.00000000e-01   5.00000000e-01 
  0.00000000e+00   6.00000000e-01   6.00000000e-01 
  0.00000000e+00   6.00000000e-01   7.00000000e-01 
  0.00000000e+00   6.00000000e-01   8.00000000e-01 
  0.00000000e+00   6.00000000e-01   9.00000000e-01 
  0.00000000e+00   7.00000000e-01   0.00000000e+00 
  0.00000000e+00   7.00000000e-01   1.00000000e-01 
  0.00000000e+00   7.00000000e-01   2.00000000e-01 
  0.00000000e+00   7.00000000e-01   3.00000000e-01 
  0.00000000e+00   7.00000000e-01   4.00000000e-01 
  0.00000000e+00   7.00000000e-01   5.00000000e-01 
  0.00000000e+00   7.00000000e-01   6.00000000e-01 
  0.00000000e+00   7.00000000e-01   7.00000000e-01 
  0.00000000e+00   7.00000000e-01   8.00000000e-01 
  0.00000000e+00   7.00000000e-01   9.00000000e-01 
  0.00000000e+00   8.00000000e-01   0.00000000e+00 
  0.00000000e+00   8.00000000e-01   1.00000000e-01 
  0.00000000e+00   8.00000000e-01   2.00000000e-01 
  0.00000000e+00   8.00000000e-01   3.00000000e-01 
  0.00000000e+00   8.00000000e-01   4.00000000e-01 
  0.00000000e+00   8.00000000e-01   5.00000000e-01 
  0.00000000e+00   8.00000000e-01   6.00000000e-01 
  0.00000000e+00   8.00000000e-01   7.00000000e-01 
  0.00000000e+00   8.00000000e-01   8.00000000e-01 
  0.00000000e+00   8.00000000e-01   9.00000000e-01 
  0.00000000e+00   9.00000000e-01   0.00000000e+00 
  0.00000000e+00   9.00000000e-01   1.00000000e-01 
  0.00000000e+00   9.00000000e-01   2.00000000e-01 
  0.00000000e+00   9.00000000e-01   3.00000000e-01 
  0.00000000e+00   9.00000000e-01   4.00000000e-01 
  0.00000000e+00   9.00000000e-01   5.00000000e-01 
  0.00000000e+00   9.00000000e-01   6.00000000e-01 
  0.00000000e+00   9.00000000e-01   7.00000000e-01 
  0.00000000e+00   9.00000000e-01   8.00000000e-01 
  0.00000000e+00   9.00000000e-01   9.00000000e-01 
  1.00000000e-01   0.00000000e+00   0.00000000e+00 
  1.00000000e-01   0.00000000e+00   1.00000000e-01 
  1.00000000e-01   0.00000000e+00   2.00000000e-01 
  1.00000000e-01   0.00000000e+00   3.00000000e-01 
  1.00000000e-01   0.00000000e+00   4.00000000e-01 
  1.00000000e-01   0.00000000e+00   5.00000000e-01 
  1.00000000e-01   0.00000000e+00   6.00000000e-01 
  1.00000000e-01   0.00000000e+00   7.00000000e-01 
  1.00000000e-01   0.00000000e+00   8.00000000e-01 
  1.00000000e-01   0.00000000e+00   9.00000000e-01 
  1.00000000e-01   1.00000000e-01   0.00000000e+00 
  1.00000000e-01   1.00000000e-01   1.00000000e-01 
  1.00000000e-01   1.00000000e-01   2.00000000e-01 
  1.00000000e-01   1.00000000e-01   3.00000000e-01 
  1.00000000e-01   1.00000000e-01   4.00000000e-01 
  1.00000000e-01   1.00000000e-01   5.00000000e-01 
  1.00000000e-01   1.00000000e-01   6.00000000e-01 
  1.00000000e-01   1.00000000e-01   7.00000000e-01 
  1.00000000e-01   1.00000000e-01   8.00000000e-01 
  1.00000000e-01   1.00000000e-01   9.00000000e-01 
  1.00000000e-01   2.00000000e-01   0.00000000e+00 
  1.00000000e-01   2.00000000e-01   1.00000000e-01 
  1.00000000e-01   2.00000000e-01   2.00000000e-01 
  1.00000000e-01   2.00000000e-01   3.00000000e-01 
  1.00000000e-01   2.00000000e-01   4.00000000e-01 
  1.00000000e-01   2.00000000e-01   5.00000000e-01 
  1.00000000e-01   2.00000000e-01   6.00000000e-01 
  1.00000000e-01   2.00000000e-01   7.00000000e-01 
  1.00000000e-01   2.00000000e-01   8.00000000e-01 
  1.00000000e-01   2.00000000e-01   9.00000000e-01 
  1.00000000e-01   3.00000000e-01   0.00000000e+00 
  1.00000000e-01   3.00000000e-01   1.00000000e-01 
  1.00000000e-01   3.00000000e-01   2.00000000e-01 
  1.00000000e-01   3.00000000e-01   3.00000000e-01 
  1.00000000e-01   3.00000000e-01   4.00000000e-01 
  1.00000000e-01   3.00000000e-01   5.00000000e-01 
  1.00000000e-01   3.00000000e-01   6.00000000e-01 
  1.00000000e-01   3.00000000e-01   7.00000000e-01 
  1.00000000e-01   3.00000000e-01   8.00000000e-01 
  1.00000000e-01   3.00000000e-01   9.00000000e-01 
  1.00000000e-01   4.00000000e-01   0.00000000e+00 
  1.00000000e-01   4.00000000e-01   1.00000000e-01 
  1.00000000e-01   4.00000000e-01   2.00000000e-01 
  1.00000000e-01   4.00000000e-01   3.00000000e-01 
  1.00000000e-01   4.00000000e-01   4.00000000e-01 
  1.00000000e-01   4.00000000e-01   5.00000000e-01 
  1.00000000e-01   4.00000000e-01   6.00000000e-01 
  1.00000000e-01   4.00000000e-01   7.00000000e-01 
  1.00000000e-01   4.00000000e-01   8.00000000e-01 
  1.00000000e-01   4.00000000e-01   9.00000000e-01 
  1.00000000e-01   5.00000000e-01   0.00000000e+00 
  1.00000000e-01   5.00000000e-01   1.00000000e-01 
  1.00000000e-01   5.00000000e-01   2.00000000e-01 
  1.00000000e-01   5.00000000e-01   3.00000000e-01 
  1.00000000e-01   5.00000000e-01   4.00000000e-01 
  1.00000000e-01   5.00000000e-01   5.00000000e-01 
  1.00000000e-01   5.00000000e-01   6.00000000e-01 
  1.00000000e-01   5.00000000e-01   7.00000000e-01 
  1.00000000e-01   5.00000000e-01   8.00000000e-01 
  1.00000000e-01   5.00000000e-01   9.00000000e-01 
  1.00000000e-01   6.00000000e-01   0.00000000e+00 
  1.00000000e-01   6.00000000e-01   1.00000000e-01 
  1.00000000e-01   6.00000000e-01   2.00000000e-01 
  1.00000000e-01   6.00000000e-01   3.00000000e-01 
  1.00000000e-01   6.00000000e-01   4.00000000e-01 
  1.00000000e-01   6.00000000e-01   5.00000000e-01 
  1.00000000e-01   6.00000000e-01   6.00000000e-01 
  1.00000000e-01   6.00000000e-01   7.00000000e-01 
  1.00000000e-01   6.00000000e-01   8.00000000e-01 
  1.00000000e-01   6.00000000e-01   9.00000000e-01 
  1.00000000e-01   7.00000000e-01   0.00000000e+00 
  1.00000000e-01   7.00000000e-01   1.00000000e-01 
  1.00000000e-01   7.00000000e-01   2.00000000e-01 
  1.00000000e-01   7.00000000e-01   3.00000000e-01 
  1.00000000e-01   7.00000000e-01   4.00000000e-01 
  1.00000000e-01   7.00000000e-01   5.00000000e-01 
  1.00000000e-01   7.00000000e-01   6.00000000e-01 
  1.00000000e-01   7.00000000e-01   7.00000000e-01 
  1.00000000e-01   7.00000000e-01   8.00000000e-01 
  1.00000000e-01   7.00000000e-01   9.00000000e-01 
  1.00000000e-01   8.00000000e-01   0.00000000e+00 
  1.00000000e-01   8.00000000e-01   1.00000000e-01 
  1.00000000e-01   8.00000000e-01   2.00000000e-01 
  1.00000000e-01   8.00000000e-01   3.00000000e-01 
  1.00000000e-01   8.00000000e-01   4.00000000e-01 
  1.00000000e-01   8.00000000e-01   5.00000000e-01 
  1.00000000e-01   8.00000000e-01   6.00000000e-01 
  1.00000000e-01   8.00000000e-01   7.00000000e-01 
  1.00000000e-01   8.00000000e-01   8.00000000e-01 
[...]
POINT_DATA   1000
FIELD solution 1
u 3   1000 DOUBLE
   -9.88685044e-05    -2.50431357e-05    -1.32147887e-05 
   -8.56085262e-05    -1.70228916e-05    -2.03028081e-05 
   -8.71654143e-05    -1.56409551e-05    -7.67621303e-06 
   -8.97608422e-05    -1.28701524e-05    -6.57392971e-06 
   -9.27747678e-05    -1.20329405e-05    -1.21009787e-06 
   -9.27761407e-05    -1.20321275e-05     1.19762007e-06 
   -8.97622173e-05    -1.28717717e-05     6.56031075e-06 
   -8.71700400e-05    -1.56407796e-05     7.65966856e-06 
   -8.56152415e-05    -1.70261203e-05     2.02877364e-05 
   -9.87869022e-05    -2.51065237e-05     1.32255892e-05 
   -8.67825904e-05    -1.86627455e-05    -1.60607922e-05 
   -7.62330017e-05    -1.97920688e-05    -1.86123237e-05 
   -7.73743681e-05    -1.74508359e-05    -1.04617878e-05 
   -8.00136405e-05    -1.62559557e-05    -6.53689265e-06 
   -8.29955521e-05    -1.53805331e-05    -2.91698765e-06 
   -8.29963314e-05    -1.53797235e-05     2.90610911e-06 
   -8.00159063e-05    -1.62570566e-05     6.52532252e-06 
   -7.73788096e-05    -1.74516016e-05     1.04470048e-05 
   -7.62329363e-05    -1.97844756e-05     1.85905434e-05 
   -8.67945232e-05    -1.86570417e-05     1.60520334e-05 
   -8.75911349e-05    -1.02663241e-05    -1.47722685e-05 
   -7.73707832e-05    -1.12799353e-05    -1.78867116e-05 
   -7.77514141e-05    -1.05850447e-05    -9.94160952e-06 
   -8.02714183e-05    -8.18077957e-06    -5.86457802e-06 
   -8.30668811e-05    -8.10627915e-06    -2.41686918e-06 
   -8.30676528e-05    -8.10596867e-06     2.40564602e-06 
   -8.02730134e-05    -8.18266184e-06     5.85213935e-06 
   -7.77507033e-05    -1.05581578e-05     9.90196855e-06 
   -7.73770963e-05    -1.12759862e-05     1.78740193e-05 
   -8.75992934e-05    -1.02628188e-05     1.47582369e-05 
   -9.03344758e-05    -4.29233181e-06    -1.22094405e-05 
   -8.00417091e-05    -6.22347099e-06    -1.56903317e-05 
   -8.03192692e-05    -5.22421676e-06    -8.13009871e-06 
   -8.10325273e-05    -5.44602088e-06    -5.48934597e-06 
   -8.46351234e-05    -3.97351210e-06    -2.68199197e-06 
   -8.46357372e-05    -3.97356674e-06     2.67188785e-06 
   -8.10320808e-05    -5.42087745e-06     5.45270842e-06 
   -8.03219183e-05    -5.22076507e-06     8.11946003e-06 
   -8.00466616e-05    -6.22186597e-06     1.56746643e-05 
   -9.03404735e-05    -4.28616633e-06     1.21957702e-05 
   -9.34858399e-05    -3.12904133e-06    -1.15010613e-05 
   -8.31071239e-05    -3.28505465e-06    -1.54624074e-05 
   -8.31499610e-05    -3.27860486e-06    -8.15123052e-06 
   -8.47274091e-05    -2.74308465e-06    -4.40196182e-06 
   -8.69135394e-05    -2.70603698e-06    -2.62444096e-06 
   -8.69133904e-05    -2.68340879e-06     2.59186753e-06 
   -8.47286843e-05    -2.74196483e-06     4.39274242e-06 
   -8.31526035e-05    -3.27897870e-06     8.13988378e-06 
   -8.31114644e-05    -3.28313752e-06     1.54472175e-05 
   -9.34914120e-05    -3.13017844e-06     1.14860842e-05 
   -9.34858399e-05     3.12904133e-06    -1.15010613e-05 
   -8.31071239e-05     3.28505465e-06    -1.54624074e-05 
   -8.31499610e-05     3.27860486e-06    -8.15123052e-06 
   -8.47274091e-05     2.74308465e-06    -4.40196182e-06 
   -8.69135394e-05     2.70603698e-06    -2.62444096e-06 
   -8.69133904e-05     2.68340879e-06     2.59186753e-06 
   -8.47286843e-05     2.74196483e-06     4.39274242e-06 
   -8.31526035e-05     3.27897870e-06     8.13988378e-06 
   -8.31114644e-05     3.28313752e-06     1.54472175e-05 
   -9.34914120e-05     3.13017844e-06     1.14860842e-05 
   -9.03344758e-05     4.29233181e-06    -1.22094405e-05 
   -8.00417091e-05     6.22347099e-06    -1.56903317e-05 
   -8.03192692e-05     5.22421676e-06    -8.13009871e-06 
   -8.10325273e-05     5.44602088e-06    -5.48934597e-06 
   -8.46351234e-05     3.97351210e-06    -2.68199197e-06 
   -8.46357372e-05     3.97356674e-06     2.67188785e-06 
   -8.10320808e-05     5.42087745e-06     5.45270842e-06 
   -8.03219183e-05     5.22076507e-06     8.11946003e-06 
   -8.00466616e-05     6.22186597e-06     1.56746643e-05 
   -9.03404735e-05     4.28616633e-06     1.21957702e-05 
   -8.75911349e-05     1.02663241e-05    -1.47722685e-05 
   -7.73707832e-05     1.12799353e-05    -1.78867116e-05 
   -7.77514141e-05     1.05850447e-05    -9.94160952e-06 
   -8.02714183e-05     8.18077957e-06    -5.86457802e-06 
   -8.30668811e-05     8.10627915e-06    -2.41686918e-06 
   -8.30676528e-05     8.10596867e-06     2.40564602e-06 
   -8.02730134e-05     8.18266184e-06     5.85213935e-06 
   -7.77507033e-05     1.05581578e-05     9.90196855e-06 
   -7.73770963e-05     1.12759862e-05     1.78740193e-05 
   -8.75992934e-05     1.02628188e-05     1.47582369e-05 
   -8.67825904e-05     1.86627455e-05    -1.60607922e-05 
   -7.62330017e-05     1.97920688e-05    -1.86123237e-05 
   -7.73743681e-05     1.74508359e-05    -1.04617878e-05 
   -8.00136405e-05     1.62559557e-05    -6.53689265e-06 
   -8.29955521e-05     1.53805331e-05    -2.91698765e-06 
   -8.29963314e-05     1.53797235e-05     2.90610911e-06 
   -8.00159063e-05     1.62570566e-05     6.52532252e-06 
   -7.73788096e-05     1.74516016e-05     1.04470048e-05 
   -7.62329363e-05     1.97844756e-05     1.85905434e-05 
   -8.67945232e-05     1.86570417e-05     1.60520334e-05 
   -9.88685044e-05     2.50431357e-05    -1.32147887e-05 
   -8.56085262e-05     1.70228916e-05    -2.03028081e-05 
   -8.71654143e-05     1.56409551e-05    -7.67621303e-06 
   -8.97608422e-05     1.28701524e-05    -6.57392971e-06 
   -9.27747678e-05     1.20329405e-05    -1.21009787e-06 
   -9.27761407e-05     1.20321275e-05     1.19762007e-06 
   -8.97622173e-05     1.28717717e-05     6.56031075e-06 
   -8.71700400e-05     1.56407796e-05     7.65966856e-06 
   -8.56152415e-05     1.70261203e-05     2.02877364e-05 
   -9.87869022e-05     2.51065237e-05     1.32255892e-05 
   -5.21174191e-05    -3.78788035e-05    -2.84953898e-05 
   -5.22544378e-05    -2.97330828e-05    -2.64401728e-05 
   -4.86089116e-05    -2.89134956e-05    -1.46406153e-05 
   -5.07776643e-05    -2.70031596e-05    -7.79562271e-06 
   -5.23024620e-05    -2.68405855e-05    -2.19474384e-06 
   -5.23012533e-05    -2.68402870e-05     2.19505595e-06 
   -5.07816047e-05    -2.70029620e-05     7.79481881e-06 
   -4.86121080e-05    -2.89126207e-05     1.46388235e-05 
   -5.22616537e-05    -2.97365991e-05     2.64373157e-05 
   -5.20768072e-05    -3.78880223e-05     2.84998025e-05 
   -4.99860490e-05    -2.58631852e-05    -2.90404949e-05 
   -4.99103795e-05    -2.66037936e-05    -2.41752966e-05 
   -4.72314554e-05    -2.41170261e-05    -1.62488370e-05 
   -4.85948679e-05    -2.35834934e-05    -7.15390118e-06 
   -5.01163588e-05    -2.27990609e-05    -3.13046609e-06 
   -5.01153378e-05    -2.27976061e-05     3.13081324e-06 
   -4.85982707e-05    -2.35853818e-05     7.15317857e-06 
   -4.72289855e-05    -2.41170718e-05     1.62463802e-05 
   -4.99294878e-05    -2.66169546e-05     2.41776937e-05 
   -4.99920624e-05    -2.58616189e-05     2.90381327e-05 
   -4.99241999e-05    -1.61372782e-05    -2.83593416e-05 
   -4.81912675e-05    -1.59162057e-05    -2.50273321e-05 
   -4.60119263e-05    -1.58574656e-05    -1.53840225e-05 
   -4.62094575e-05    -1.32607240e-05    -7.79191176e-06 
   -4.80094402e-05    -1.34962232e-05    -2.45438389e-06 
   -4.80092031e-05    -1.34966312e-05     2.45316390e-06 
   -4.62092492e-05    -1.32616900e-05     7.78784576e-06 
   -4.60174639e-05    -1.58584450e-05     1.53786208e-05 
   -4.81922323e-05    -1.59163925e-05     2.50219241e-05 
   -4.99327090e-05    -1.61397843e-05     2.83505461e-05 
   -5.02302050e-05    -6.57556636e-06    -2.65682855e-05 
   -4.81622103e-05    -7.72045700e-06    -2.29125547e-05 
   -4.62494381e-05    -7.18983979e-06    -1.36064447e-05 
   -4.63401001e-05    -7.49110795e-06    -7.41520569e-06 
   -4.87151794e-05    -5.92355008e-06    -2.44502165e-06 
   -4.87140259e-05    -5.92311924e-06     2.44292718e-06 
   -4.63435542e-05    -7.48836558e-06     7.40864555e-06 
   -4.62482958e-05    -7.18739388e-06     1.36023733e-05 
   -4.81652545e-05    -7.72154315e-06     2.29032704e-05 
   -5.02348024e-05    -6.57279859e-06     2.65590994e-05 
   -5.27521455e-05    -3.00091733e-06    -2.64535737e-05 
   -5.02734580e-05    -2.71408660e-06    -2.31673675e-05 
   -4.82564066e-05    -3.11788350e-06    -1.35302528e-05 
   -4.85807092e-05    -2.25621591e-06    -6.32128798e-06 
   -5.08580922e-05    -2.42092570e-06    -2.39544860e-06 
   -5.08583220e-05    -2.41784838e-06     2.38899186e-06 
   -4.85809399e-05    -2.25516248e-06     6.31880244e-06 
   -4.82574182e-05    -3.11929979e-06     1.35255017e-05 
   -5.02760683e-05    -2.71398950e-06     2.31590684e-05 
   -5.27568278e-05    -3.00298375e-06     2.64437761e-05 
   -5.27521455e-05     3.00091733e-06    -2.64535737e-05 
   -5.02734580e-05     2.71408660e-06    -2.31673675e-05 
   -4.82564066e-05     3.11788350e-06    -1.35302528e-05 
   -4.85807092e-05     2.25621591e-06    -6.32128798e-06 
   -5.08580922e-05     2.42092570e-06    -2.39544860e-06 
   -5.08583220e-05     2.41784838e-06     2.38899186e-06 
   -4.85809399e-05     2.25516248e-06     6.31880244e-06 
   -4.82574182e-05     3.11929979e-06     1.35255017e-05 
   -5.02760683e-05     2.71398951e-06     2.31590684e-05 
   -5.27568278e-05     3.00298375e-06     2.64437761e-05 
   -5.02302050e-05     6.57556636e-06    -2.65682855e-05 
   -4.81622103e-05     7.72045700e-06    -2.29125547e-05 
   -4.62494381e-05     7.18983979e-06    -1.36064447e-05 
   -4.63401001e-05     7.49110795e-06    -7.41520569e-06 
   -4.87151794e-05     5.92355008e-06    -2.44502165e-06 
   -4.87140259e-05     5.92311924e-06     2.44292718e-06 
   -4.63435542e-05     7.48836558e-06     7.40864555e-06 
   -4.62482958e-05     7.18739388e-06     1.36023733e-05 
   -4.81652545e-05     7.72154315e-06     2.29032704e-05 
   -5.02348024e-05     6.57279859e-06     2.65590994e-05 
   -4.99241999e-05     1.61372782e-05    -2.83593416e-05 
   -4.81912675e-05     1.59162057e-05    -2.50273321e-05 
   -4.60119263e-05     1.58574656e-05    -1.53840225e-05 
   -4.62094575e-05     1.32607240e-05    -7.79191176e-06 
   -4.80094402e-05     1.34962232e-05    -2.45438389e-06 
   -4.80092031e-05     1.34966312e-05     2.45316390e-06 
   -4.62092492e-05     1.32616900e-05     7.78784576e-06 
   -4.60174639e-05     1.58584450e-05     1.53786208e-05 
   -4.81922323e-05     1.59163925e-05     2.50219241e-05 
   -4.99327090e-05     1.61397843e-05     2.83505461e-05 
   -4.99860490e-05     2.58631852e-05    -2.90404949e-05 
   -4.99103795e-05     2.66037936e-05    -2.41752966e-05 
   -4.72314554e-05     2.41170261e-05    -1.62488370e-05 
   -4.85948679e-05     2.35834934e-05    -7.15390118e-06 
   -5.01163588e-05     2.27990609e-05    -3.13046609e-06 
   -5.01153378e-05     2.27976061e-05     3.13081324e-06 
   -4.85982707e-05     2.35853818e-05     7.15317857e-06 
   -4.72289855e-05     2.41170718e-05     1.62463802e-05 
   -4.99294878e-05     2.66169546e-05     2.41776937e-05 
   -4.99920624e-05     2.58616189e-05     2.90381327e-05 
   -5.21174191e-05     3.78788035e-05    -2.84953898e-05 
   -5.22544378e-05     2.97330828e-05    -2.64401728e-05 
   -4.86089116e-05     2.89134956e-05    -1.46406153e-05 
   -5.07776643e-05     2.70031596e-05    -7.79562271e-06 
   -5.23024620e-05     2.68405855e-05    -2.19474384e-06 
   -5.23012533e-05     2.68402870e-05     2.19505595e-06 
   -5.07816047e-05     2.70029620e-05     7.79481881e-06 
   -4.86121080e-05     2.89126207e-05     1.46388235e-05 
   -5.22616537e-05     2.97365991e-05     2.64373157e-05 
   -5.20768072e-05     3.78880223e-05     2.84998025e-05 
   -3.73018656e-05    -4.19723340e-05    -3.24036069e-05 
   -3.48378225e-05    -3.46941617e-05    -3.48212973e-05 
   -3.26672917e-05    -3.27002372e-05    -2.22986904e-05 
   -2.98046250e-05    -3.12217795e-05    -1.16746126e-05 
   -3.02421011e-05    -3.14088956e-05    -2.16085805e-06 
   -3.02431945e-05    -3.14089601e-05     2.15888470e-06 
   -2.98059841e-05    -3.12219605e-05     1.16727574e-05 
   -3.26679635e-05    -3.27027018e-05     2.22931252e-05 
   -3.48378933e-05    -3.46956909e-05     3.48146926e-05 
   -3.72746439e-05    -4.19736982e-05     3.23986860e-05 
   -3.59397419e-05    -3.47499247e-05    -3.41013497e-05 
   -3.46043180e-05    -3.23450921e-05    -3.24550316e-05 
   -3.18450189e-05    -3.08861391e-05    -2.26626029e-05 
   -2.84668769e-05    -2.93391755e-05    -1.18300773e-05 
   -2.88680803e-05    -2.90175836e-05    -3.07236368e-06 
   -2.88686085e-05    -2.90168159e-05     3.07238986e-06 
   -2.84654034e-05    -2.93409915e-05     1.18280526e-05 
   -3.18486162e-05    -3.08874676e-05     2.26631052e-05 
   -3.46178304e-05    -3.23497200e-05     3.24545419e-05 
   -3.59439719e-05    -3.47471746e-05     3.40971939e-05 
   -3.27172272e-05    -2.30686139e-05    -3.21114979e-05 
   -3.13063759e-05    -2.29264370e-05    -3.08268957e-05 
   -2.78400737e-05    -2.19229126e-05    -2.16365465e-05 
   -2.46832314e-05    -2.02865216e-05    -1.17219820e-05 
   -2.48055199e-05    -2.03227841e-05    -2.96028722e-06 
   -2.48045513e-05    -2.03227964e-05     2.95795370e-06 
   -2.46834982e-05    -2.02870303e-05     1.17212664e-05 
   -2.78488405e-05    -2.19260211e-05     2.16344215e-05 
   -3.13089123e-05    -2.29295293e-05     3.08226782e-05 
   -3.27200385e-05    -2.30667956e-05     3.21074981e-05 
   -2.98147447e-05    -1.09532735e-05    -3.07601095e-05 
   -2.86453178e-05    -1.16358017e-05    -2.91135500e-05 
   -2.47522796e-05    -1.12710469e-05    -2.05526337e-05 
   -2.22973665e-05    -1.10394990e-05    -1.11282927e-05 
   -2.27437109e-05    -9.55006509e-06    -2.99726156e-06 
   -2.27443924e-05    -9.55049645e-06     2.99509165e-06 
   -2.22995595e-05    -1.10370509e-05     1.11220061e-05 
   -2.47524508e-05    -1.12717905e-05     2.05481700e-05 
   -2.86438034e-05    -1.16348110e-05     2.91070368e-05 
   -2.98178260e-05    -1.09519121e-05     3.07529328e-05 
   -3.01824177e-05    -2.91306722e-06    -3.09549120e-05 
   -2.88713967e-05    -3.42816508e-06    -2.90692749e-05 
   -2.48299137e-05    -3.44558293e-06    -2.04389597e-05 
   -2.27475837e-05    -2.93348243e-06    -9.88100790e-06 
   -2.32199035e-05    -2.72140636e-06    -2.80951955e-06 
   -2.32207570e-05    -2.71754545e-06     2.80389566e-06 
   -2.27477104e-05    -2.93439786e-06     9.87803501e-06 
   -2.48289131e-05    -3.44508795e-06     2.04340028e-05 
   -2.88724134e-05    -3.42782996e-06     2.90617599e-05 
   -3.01857230e-05    -2.91335017e-06     3.09471642e-05 
   -3.01824177e-05     2.91306722e-06    -3.09549120e-05 
   -2.88713967e-05     3.42816508e-06    -2.90692749e-05 
   -2.48299137e-05     3.44558293e-06    -2.04389597e-05 
   -2.27475837e-05     2.93348243e-06    -9.88100790e-06 
   -2.32199035e-05     2.72140636e-06    -2.80951955e-06 
   -2.32207570e-05     2.71754545e-06     2.80389566e-06 
   -2.27477104e-05     2.93439786e-06     9.87803501e-06 
   -2.48289131e-05     3.44508795e-06     2.04340028e-05 
   -2.88724134e-05     3.42782996e-06     2.90617599e-05 
   -3.01857230e-05     2.91335017e-06     3.09471642e-05 
   -2.98147447e-05     1.09532735e-05    -3.07601095e-05 
   -2.86453178e-05     1.16358017e-05    -2.91135500e-05 
   -2.47522796e-05     1.12710469e-05    -2.05526337e-05 
   -2.22973665e-05     1.10394990e-05    -1.11282927e-05 
   -2.27437109e-05     9.55006509e-06    -2.99726156e-06 
   -2.27443924e-05     9.55049645e-06     2.99509165e-06 
   -2.22995595e-05     1.10370509e-05     1.11220061e-05 
   -2.47524508e-05     1.12717905e-05     2.05481700e-05 
   -2.86438034e-05     1.16348110e-05     2.91070368e-05 
   -2.98178260e-05     1.09519121e-05     3.07529328e-05 
   -3.27172272e-05     2.30686139e-05    -3.21114979e-05 
   -3.13063759e-05     2.29264370e-05    -3.08268957e-05 
   -2.78400737e-05     2.19229126e-05    -2.16365465e-05 
   -2.46832314e-05     2.02865216e-05    -1.17219820e-05 
   -2.48055199e-05     2.03227841e-05    -2.96028722e-06 
   -2.48045513e-05     2.03227964e-05     2.95795370e-06 
   -2.46834982e-05     2.02870303e-05     1.17212664e-05 
   -2.78488405e-05     2.19260211e-05     2.16344215e-05 
   -3.13089123e-05     2.29295293e-05     3.08226782e-05 
   -3.27200385e-05     2.30667956e-05     3.21074981e-05 
   -3.59397419e-05     3.47499247e-05    -3.41013497e-05 
   -3.46043180e-05     3.23450921e-05    -3.24550316e-05 
   -3.18450189e-05     3.08861391e-05    -2.26626029e-05 
   -2.84668769e-05     2.93391755e-05    -1.18300773e-05 
   -2.88680803e-05     2.90175836e-05    -3.07236368e-06 
   -2.88686085e-05     2.90168159e-05     3.07238986e-06 
   -2.84654034e-05     2.93409915e-05     1.18280526e-05 
   -3.18486162e-05     3.08874676e-05     2.26631052e-05 
   -3.46178304e-05     3.23497200e-05     3.24545419e-05 
   -3.59439719e-05     3.47471746e-05     3.40971939e-05 
   -3.73018656e-05     4.19723340e-05    -3.24036069e-05 
   -3.48378225e-05     3.46941617e-05    -3.48212973e-05 
   -3.26672917e-05     3.27002372e-05    -2.22986904e-05 
   -2.98046250e-05     3.12217795e-05    -1.16746126e-05 
   -3.02421011e-05     3.14088956e-05    -2.16085805e-06 
   -3.02431945e-05     3.14089601e-05     2.15888470e-06 
   -2.98059841e-05     3.12219605e-05     1.16727574e-05 
   -3.26679635e-05     3.27027018e-05     2.22931252e-05 
   -3.48378933e-05     3.46956909e-05     3.48146926e-05 
   -3.72746439e-05     4.19736982e-05     3.23986860e-05 
   -2.08338887e-05    -4.36863387e-05    -3.39946328e-05 
   -2.26184668e-05    -3.59294845e-05    -3.78192261e-05 
   -2.04764660e-05    -3.42462095e-05    -2.92717826e-05 
   -1.89993921e-05    -3.20757413e-05    -1.78696256e-05 
   -1.47761929e-05    -3.19537199e-05    -5.22968447e-06 
   -1.47758099e-05    -3.19540052e-05     5.22707980e-06 
   -1.89996672e-05    -3.20766062e-05     1.78645800e-05 
   -2.04747449e-05    -3.42474531e-05     2.92654214e-05 
   -2.26192769e-05    -3.59300969e-05     3.78107178e-05 
   -2.08117313e-05    -4.36859354e-05     3.39884992e-05 
   -2.11780646e-05    -3.78415052e-05    -3.52094935e-05 
   -2.34489250e-05    -3.60742263e-05    -3.56316242e-05 
   -2.07707774e-05    -3.51270443e-05    -2.88545565e-05 
   -1.86236288e-05    -3.38771026e-05    -1.80295925e-05 
   -1.44774231e-05    -3.37448169e-05    -5.87526342e-06 
   -1.44762317e-05    -3.37442136e-05     5.87389477e-06 
   -1.86256002e-05    -3.38786404e-05     1.80286653e-05 
   -2.07716422e-05    -3.51276061e-05     2.88531009e-05 
   -2.34594475e-05    -3.60761997e-05     3.56271238e-05 
   -2.11787811e-05    -3.78370830e-05     3.52053603e-05 
   -2.04961275e-05    -2.90428532e-05    -3.37247314e-05 
   -2.11857218e-05    -2.88806006e-05    -3.46282360e-05 
   -1.85616690e-05    -2.79478050e-05    -2.80393132e-05 
   -1.62930249e-05    -2.67616041e-05    -1.81613808e-05 
   -1.19539625e-05    -2.68264867e-05    -5.78413090e-06 
   -1.19542518e-05    -2.68272011e-05     5.78262845e-06 
   -1.62945994e-05    -2.67619900e-05     1.81598650e-05 
   -1.85675615e-05    -2.79490475e-05     2.80363795e-05 
   -2.11879658e-05    -2.88821162e-05     3.46229582e-05 
   -2.04968390e-05    -2.90394791e-05     3.37207761e-05 
   -1.87879553e-05    -1.75921961e-05    -3.15287605e-05 
   -1.88052475e-05    -1.83895301e-05    -3.40569500e-05 
   -1.61317734e-05    -1.80029316e-05    -2.69168130e-05 
   -1.43071475e-05    -1.74727924e-05    -1.75902974e-05 
   -1.01672010e-05    -1.64112542e-05    -5.43773436e-06 
   -1.01671384e-05    -1.64106760e-05     5.43644121e-06 
   -1.43117933e-05    -1.74734891e-05     1.75861370e-05 
   -1.61319471e-05    -1.80033397e-05     2.69123418e-05 
   -1.88071706e-05    -1.83905897e-05     3.40513539e-05 
   -1.87895154e-05    -1.75888939e-05     3.15239861e-05 
   -1.48114742e-05    -5.47428484e-06    -3.15064184e-05 
   -1.46647777e-05    -5.79112065e-06    -3.38828718e-05 
   -1.20690397e-05    -5.87864789e-06    -2.69405408e-05 