# vtk DataFile Version 2.0 
generated by Lattice Boltzmann Method time =   2.88675135e-01
ASCII 
DATASET UNSTRUCTURED_GRID

POINTS   1000 FLOAT 
  0.00000000e+00   0.00000000e+00   0.00000000e+00 
  0.00000000e+00   0.00000000e+00   1.00000000e-01 
  0.00000000e+00   0.00000000e+00   2.00000000e-01 
  0.00000000e+00   0.00000000e+00   3.00000000e-01 
  0.00000000e+00   0.00000000e+00   4.00000000e-01 
  0.00000000e+00   0.00000000e+00   5.00000000e-01 
  0.00000000e+00   0.00000000e+00   6.00000000e-01 
  0.00000000e+00   0.00000000e+00   7.00000000e-01 
  0.00000000e+00   0.00000000e+00   8.00000000e-01 
  0.00000000e+00   0.00000000e+00   9.00000000e-01 
  0.00000000e+00   1.00000000e-01   0.00000000e+00 
  0.00000000e+00   1.00000000e-01   1.00000000e-01 
  0.00000000e+00   1.00000000e-01   2.00000000e-01 
  0.00000000e+00   1.00000000e-01   3.00000000e-01 
  0.00000000e+00   1.00000000e-01   4.00000000e-01 
  0.00000000e+00   1.00000000e-01   5.00000000e-01 
  0.00000000e+00   1.00000000e-01   6.00000000e-01 
  0.00000000e+00   1.00000000e-01   7.00000000e-01 
  0.00000000e+00   1.00000000e-01   8.00000000e-01 
  0.00000000e+00   1.00000000e-01   9.00000000e-01 
  0.00000000e+00   2.00000000e-01   0.00000000e+00 
  0.00000000e+00   2.00000000e-01   1.00000000e-01 
  0.00000000e+00   2.00000000e-01   2.00000000e-01 
  0.00000000e+00   2.00000000e-01   3.00000000e-01 
  0.00000000e+00   2.00000000e-01   4.00000000e-01 
  0.00000000e+00   2.00000000e-01   5.00000000e-01 
  0.00000000e+00   2.00000000e-01   6.00000000e-01 
  0.00000000e+00   2.00000000e-01   7.00000000e-01 
  0.00000000e+00   2.00000000e-01   8.00000000e-01 
  0.00000000e+00   2.00000000e-01   9.00000000e-01 
  0.00000000e+00   3.00000000e-01   0.00000000e+00 
  0.00000000e+00   3.00000000e-01   1.00000000e-01 
  0.00000000e+00   3.00000000e-01   2.00000000e-01 
  0.00000000e+00   3.00000000e-01   3.00000000e-01 
  0.00000000e+00   3.00000000e-01   4.00000000e-01 
  0.00000000e+00   3.00000000e-01   5.00000000e-01 
  0.00000000e+00   3.00000000e-01   6.00000000e-01 
  0.00000000e+00   3.00000000e-01   7.00000000e-01 
  0.00000000e+00   3.00000000e-01   8.00000000e-01 
  0.00000000e+00   3.00000000e-01   9.00000000e-01 
  0.00000000e+00   4.00000000e-01   0.00000000e+00 
  0.00000000e+00   4.00000000e-01   1.00000000e-01 
  0.00000000e+00   4.00000000e-01   2.00000000e-01 
  0.00000000e+00   4.00000000e-01   3.00000000e-01 
  0.00000000e+00   4.00000000e-01   4.00000000e-01 
  0.00000000e+00   4.00000000e-01   5.00000000e-01 
  0.00000000e+00   4.00000000e-01   6.00000000e-01 
  0.00000000e+00   4.00000000e-01   7.00000000e-01 
  0.00000000e+00   4.00000000e-01   8.00000000e-01 
  0.00000000e+00   4.00000000e-01   9.00000000e-01 
  0.00000000e+00   5.00000000e-01   0.00000000e+00 
  0.00000000e+00   5.00000000e-01   1.00000000e-01 
  0.00000000e+00   5.00000000e-01   2.00000000e-01 
  0.00000000e+00   5.00000000e-01   3.00000000e-01 
  0.00000000e+00   5.00000000e-01   4.00000000e-01 
  0.00000000e+00   5.00000000e-01   5.00000000e-01 
  0.00000000e+00   5.00000000e-01   6.00000000e-01 
  0.00000000e+00   5.00000000e-01   7.00000000e-01 
  0.00000000e+00   5.00000000e-01   8.00000000e-01 
  0.00000000e+00   5.00000000e-01   9.00000000e-01 
  0.00000000e+00   6.00000000e-01   0.00000000e+00 
  0.00000000e+00   6.00000000e-01   1.00000000e-01 
  0.00000000e+00   6.00000000e-01   2.00000000e-01 
  0.00000000e+00   6.00000000e-01   3.00000000e-01 
  0.00000000e+00   6.00000000e-01   4.00000000e-01 
  0.00000000e+00   6.00000000e-01   5.00000000e-01 
  0.00000000e+00   6.00000000e-01   6.00000000e-01 
  0.00000000e+00   6.00000000e-01   7.00000000e-01 
  0.00000000e+00   6.00000000e-01   8.00000000e-01 
  0.00000000e+00   6.00000000e-01   9.00000000e-01 
  0.00000000e+00   7.00000000e-01   0.00000000e+00 
  0.00000000e+00   7.00000000e-01   1.00000000e-01 
  0.00000000e+00   7.00000000e-01   2.00000000e-01 
  0.00000000e+00   7.00000000e-01   3.00000000e-01 
  0.00000000e+00   7.00000000e-01   4.00000000e-01 
  0.00000000e+00   7.00000000e-01   5.00000000e-01 
  0.00000000e+00   7.00000000e-01   6.00000000e-01 
  0.00000000e+00   7.00000000e-01   7.00000000e-01 
  0.00000000e+00   7.00000000e-01   8.00000000e-01 
  0.00000000e+00   7.00000000e-01   9.00000000e-01 
  0.00000000e+00   8.00000000e-01   0.00000000e+00 
  0.00000000e+00   8.00000000e-01   1.00000000e-01 
  0.00000000e+00   8.00000000e-01   2.00000000e-01 
  0.00000000e+00   8.00000000e-01   3.00000000e-01 
  0.00000000e+00   8.00000000e-01   4.00000000e-01 
  0.00000000e+00   8.00000000e-01   5.00000000e-01 
  0.00000000e+00   8.00000000e-01   6.00000000e-01 
  0.00000000e+00   8.00000000e-01   7.00000000e-01 
  0.00000000e+00   8.00000000e-01   8.00000000e-01 
  0.00000000e+00   8.00000000e-01   9.00000000e-01 
  0.00000000e+00   9.00000000e-01   0.00000000e+00 
  0.00000000e+00   9.00000000e-01   1.00000000e-01 
  0.00000000e+00   9.00000000e-01   2.00000000e-01 
  0.00000000e+00   9.00000000e-01   3.00000000e-01 
  0.00000000e+00   9.00000000e-01   4.00000000e-01 
  0.00000000e+00   9.00000000e-01   5.00000000e-01 
  0.00000000e+00   9.00000000e-01   6.00000000e-01 
  0.00000000e+00   9.00000000e-01   7.00000000e-01 
  0.00000000e+00   9.00000000e-01   8.00000000e-01 
  0.00000000e+00   9.00000000e-01   9.00000000e-01 
  1.00000000e-01   0.00000000e+00   0.00000000e+00 
  1.00000000e-01   0.00000000e+00   1.00000000e-01 
  1.00000000e-01   0.00000000e+00   2.00000000e-01 
  1.00000000e-01   0.00000000e+00   3.00000000e-01 
  1.00000000e-01   0.00000000e+00   4.00000000e-01 
  1.00000000e-01   0.00000000e+00   5.00000000e-01 
  1.00000000e-01   0.00000000e+00   6.00000000e-01 
  1.00000000e-01   0.00000000e+00   7.00000000e-01 
  1.00000000e-01   0.00000000e+00   8.00000000e-01 
  1.00000000e-01   0.00000000e+00   9.00000000e-01 
  1.00000000e-01   1.00000000e-01   0.00000000e+00 
  1.00000000e-01   1.00000000e-01   1.00000000e-01 
  1.00000000e-01   1.00000000e-01   2.00000000e-01 
  1.00000000e-01   1.00000000e-01   3.00000000e-01 
  1.00000000e-01   1.00000000e-01   4.00000000e-01 
  1.00000000e-01   1.00000000e-01   5.00000000e-01 
  1.00000000e-01   1.00000000e-01   6.00000000e-01 
  1.00000000e-01   1.00000000e-01   7.00000000e-01 
  1.00000000e-01   1.00000000e-01   8.00000000e-01 
  1.00000000e-01   1.00000000e-01   9.00000000e-01 
  1.00000000e-01   2.00000000e-01   0.00000000e+00 
  1.00000000e-01   2.00000000e-01   1.00000000e-01 
  1.00000000e-01   2.00000000e-01   2.00000000e-01 
  1.00000000e-01   2.00000000e-01   3.00000000e-01 
  1.00000000e-01   2.00000000e-01   4.00000000e-01 
  1.00000000e-01   2.00000000e-01   5.00000000e-01 
  1.00000000e-01   2.00000000e-01   6.00000000e-01 
  1.00000000e-01   2.00000000e-01   7.00000000e-01 
  1.00000000e-01   2.00000000e-01   8.00000000e-01 
  1.00000000e-01   2.00000000e-01   9.00000000e-01 
  1.00000000e-01   3.00000000e-01   0.00000000e+00 
  1.00000000e-01   3.00000000e-01   1.00000000e-01 
  1.00000000e-01   3.00000000e-01   2.00000000e-01 
  1.00000000e-01   3.00000000e-01   3.00000000e-01 
  1.00000000e-01   3.00000000e-01   4.00000000e-01 
  1.00000000e-01   3.00000000e-01   5.00000000e-01 
  1.00000000e-01   3.00000000e-01   6.00000000e-01 
  1.00000000e-01   3.00000000e-01   7.00000000e-01 
  1.00000000e-01   3.00000000e-01   8.00000000e-01 
  1.00000000e-01   3.00000000e-01   9.00000000e-01 
  1.00000000e-01   4.00000000e-01   0.00000000e+00 
  1.00000000e-01   4.00000000e-01   1.00000000e-01 
  1.00000000e-01   4.00000000e-01   2.00000000e-01 
  1.00000000e-01   4.00000000e-01   3.00000000e-01 
  1.00000000e-01   4.00000000e-01   4.00000000e-01 
  1.00000000e-01   4.00000000e-01   5.00000000e-01 
  1.00000000e-01   4.00000000e-01   6.00000000e-01 
  1.00000000e-01   4.00000000e-01   7.00000000e-01 
  1.00000000e-01   4.00000000e-01   8.00000000e-01 
  1.00000000e-01   4.00000000e-01   9.00000000e-01 
  1.00000000e-01   5.00000000e-01   0.00000000e+00 
  1.00000000e-01   5.00000000e-01   1.00000000e-01 
  1.00000000e-01   5.00000000e-01   2.00000000e-01 
  1.00000000e-01   5.00000000e-01   3.00000000e-01 
  1.00000000e-01   5.00000000e-01   4.00000000e-01 
  1.00000000e-01   5.00000000e-01   5.00000000e-01 
  1.00000000e-01   5.00000000e-01   6.00000000e-01 
  1.00000000e-01   5.00000000e-01   7.00000000e-01 
  1.00000000e-01   5.00000000e-01   8.00000000e-01 
  1.00000000e-01   5.00000000e-01   9.00000000e-01 
  1.00000000e-01   6.00000000e-01   0.00000000e+00 
  1.00000000e-01   6.00000000e-01   1.00000000e-01 
  1.00000000e-01   6.00000000e-01   2.00000000e-01 
  1.00000000e-01   6.00000000e-01   3.00000000e-01 
  1.00000000e-01   6.00000000e-01   4.00000000e-01 
  1.00000000e-01   6.00000000e-01   5.00000000e-01 
  1.00000000e-01   6.00000000e-01   6.00000000e-01 
  1.00000000e-01   6.00000000e-01   7.00000000e-01 
  1.00000000e-01   6.00000000e-01   8.00000000e-01 
  1.00000000e-01   6.00000000e-01   9.00000000e-01 
  1.00000000e-01   7.00000000e-01   0.00000000e+00 
  1.00000000e-01   7.00000000e-01   1.00000000e-01 
  1.00000000e-01   7.00000000e-01   2.00000000e-01 
  1.00000000e-01   7.00000000e-01   3.00000000e-01 
  1.00000000e-01   7.00000000e-01   4.00000000e-01 
  1.00000000e-01   7.00000000e-01   5.00000000e-01 
  1.00000000e-01   7.00000000e-01   6.00000000e-01 
  1.00000000e-01   7.00000000e-01   7.00000000e-01 
  1.00000000e-01   7.00000000e-01   8.00000000e-01 
  1.00000000e-01   7.00000000e-01   9.00000000e-01 
  1.00000000e-01   8.00000000e-01   0.00000000e+00 
  1.00000000e-01   8.00000000e-01   1.00000000e-01 
  1.00000000e-01   8.00000000e-01   2.00000000e-01 
  1.00000000e-01   8.00000000e-01   3.00000000e-01 
  1.00000000e-01   8.00000000e-01   4.00000000e-01 
  1.00000000e-01   8.00000000e-01   5.00000000e-01 
  1.00000000e-01   8.00000000e-01   6.00000000e-01 
  1.00000000e-01   8.00000000e-01   7.00000000e-01 
  1.00000000e-01   8.00000000e-01   8.00000000e-01 
[...]
POINT_DATA   1000
FIELD solution 1
u 3   1000 DOUBLE
   -1.52553022e-04     2.87801572e-05     2.49997347e-05 
   -1.49521040e-04     2.84792209e-05     1.51659998e-05 
   -1.52870801e-04     3.21328299e-05     7.95115628e-06 
   -1.53625223e-04     3.32757026e-05     2.82211911e-06 
   -1.53421196e-04     3.38813490e-05     6.47457230e-08 
   -1.53421137e-04     3.38815166e-05    -6.57683099e-08 
   -1.53625114e-04     3.32755973e-05    -2.82562422e-06 
   -1.52870721e-04     3.21351551e-05    -7.95211389e-06 
   -1.49521895e-04     2.84786024e-05    -1.51690069e-05 
   -1.52503070e-04     2.87601568e-05    -2.49965697e-05 
   -1.48457816e-04     1.32918494e-05     2.82053330e-05 
   -1.41898833e-04     1.70674643e-05     1.71507242e-05 
   -1.45456861e-04     1.62790082e-05     9.05008364e-06 
   -1.46085164e-04     1.73110448e-05     2.86545286e-06 
   -1.45947311e-04     1.74235545e-05     6.58596797e-08 
   -1.45947296e-04     1.74236552e-05    -6.75355249e-08 
   -1.46085052e-04     1.73120283e-05    -2.86873510e-06 
   -1.45456916e-04     1.62791567e-05    -9.05440307e-06 
   -1.41898626e-04     1.70838330e-05    -1.71668458e-05 
   -1.48458824e-04     1.32957671e-05    -2.82050783e-05 
   -1.52877223e-04     6.73951695e-06     3.21248949e-05 
   -1.45461949e-04     8.62171800e-06     1.62195552e-05 
   -1.48501745e-04     9.74414363e-06     9.71541990e-06 
   -1.49576488e-04     9.20771815e-06     2.91570579e-06 
   -1.49445034e-04     9.34601999e-06     4.97879243e-08 
   -1.49444991e-04     9.34653301e-06    -5.11647651e-08 
   -1.49576332e-04     9.20830700e-06    -2.91958373e-06 
   -1.48501483e-04     9.75980203e-06    -9.73110383e-06 
   -1.45461986e-04     8.62650682e-06    -1.62198844e-05 
   -1.52877068e-04     6.74258886e-06    -3.21272492e-05 
   -1.53671572e-04     2.03256341e-06     3.32622289e-05 
   -1.46104275e-04     2.72614118e-06     1.72004569e-05 
   -1.49582012e-04     2.80530744e-06     9.09731980e-06 
   -1.50130121e-04     3.30050842e-06     3.30050842e-06 
   -1.50150434e-04     2.93682295e-06     6.26369085e-08 
   -1.50150402e-04     2.93715917e-06    -6.41515537e-08 
   -1.50130036e-04     3.31174836e-06    -3.31174836e-06 
   -1.49581857e-04     2.80927607e-06    -9.09799934e-06 
   -1.46104160e-04     2.72955030e-06    -1.72015417e-05 
   -1.53671459e-04     2.03674845e-06    -3.32621304e-05 
   -1.53421196e-04     6.47457230e-08     3.38813490e-05 
   -1.45947311e-04     6.58596797e-08     1.74235545e-05 
   -1.49445034e-04     4.97879243e-08     9.34601999e-06 
   -1.50150434e-04     6.26369085e-08     2.93682295e-06 
   -1.49972180e-04     1.52510236e-07     1.52510236e-07 
   -1.49972196e-04     1.56530539e-07    -1.56530539e-07 
   -1.50150402e-04     6.41515537e-08    -2.93715917e-06 
   -1.49444991e-04     5.11647651e-08    -9.34653301e-06 
   -1.45947296e-04     6.75355249e-08    -1.74236552e-05 
   -1.53421137e-04     6.57683099e-08    -3.38815166e-05 
   -1.53421196e-04    -6.47457230e-08     3.38813490e-05 
   -1.45947311e-04    -6.58596797e-08     1.74235545e-05 
   -1.49445034e-04    -4.97879243e-08     9.34601999e-06 
   -1.50150434e-04    -6.26369085e-08     2.93682295e-06 
   -1.49972180e-04    -1.52510236e-07     1.52510236e-07 
   -1.49972196e-04    -1.56530539e-07    -1.56530539e-07 
   -1.50150402e-04    -6.41515537e-08    -2.93715917e-06 
   -1.49444991e-04    -5.11647651e-08    -9.34653301e-06 
   -1.45947296e-04    -6.75355249e-08    -1.74236552e-05 
   -1.53421137e-04    -6.57683099e-08    -3.38815166e-05 
   -1.53671572e-04    -2.03256341e-06     3.32622289e-05 
   -1.46104275e-04    -2.72614118e-06     1.72004569e-05 
   -1.49582012e-04    -2.80530744e-06     9.09731980e-06 
   -1.50130121e-04    -3.30050842e-06     3.30050842e-06 
   -1.50150434e-04    -2.93682295e-06     6.26369085e-08 
   -1.50150402e-04    -2.93715917e-06    -6.41515537e-08 
   -1.50130036e-04    -3.31174836e-06    -3.31174836e-06 
   -1.49581857e-04    -2.80927607e-06    -9.09799934e-06 
   -1.46104160e-04    -2.72955030e-06    -1.72015417e-05 
   -1.53671459e-04    -2.03674845e-06    -3.32621304e-05 
   -1.52877223e-04    -6.73951695e-06     3.21248949e-05 
   -1.45461949e-04    -8.62171800e-06     1.62195552e-05 
   -1.48501745e-04    -9.74414363e-06     9.71541990e-06 
   -1.49576488e-04    -9.20771815e-06     2.91570579e-06 
   -1.49445034e-04    -9.34601999e-06     4.97879243e-08 
   -1.49444991e-04    -9.34653301e-06    -5.11647651e-08 
   -1.49576332e-04    -9.20830700e-06    -2.91958373e-06 
   -1.48501483e-04    -9.75980203e-06    -9.73110383e-06 
   -1.45461986e-04    -8.62650682e-06    -1.62198844e-05 
   -1.52877068e-04    -6.74258886e-06    -3.21272492e-05 
   -1.48457816e-04    -1.32918494e-05     2.82053330e-05 
   -1.41898833e-04    -1.70674643e-05     1.71507242e-05 
   -1.45456861e-04    -1.62790082e-05     9.05008364e-06 
   -1.46085164e-04    -1.73110448e-05     2.86545286e-06 
   -1.45947311e-04    -1.74235545e-05     6.58596797e-08 
   -1.45947296e-04    -1.74236552e-05    -6.75355249e-08 
   -1.46085052e-04    -1.73120283e-05    -2.86873510e-06 
   -1.45456916e-04    -1.62791567e-05    -9.05440307e-06 
   -1.41898626e-04    -1.70838330e-05    -1.71668458e-05 
   -1.48458824e-04    -1.32957671e-05    -2.82050783e-05 
   -1.52553022e-04    -2.87801572e-05     2.49997347e-05 
   -1.49521040e-04    -2.84792209e-05     1.51659998e-05 
   -1.52870801e-04    -3.21328299e-05     7.95115628e-06 
   -1.53625223e-04    -3.32757026e-05     2.82211911e-06 
   -1.53421196e-04    -3.38813490e-05     6.47457230e-08 
   -1.53421137e-04    -3.38815166e-05    -6.57683099e-08 
   -1.53625114e-04    -3.32755973e-05    -2.82562422e-06 
   -1.52870721e-04    -3.21351551e-05    -7.95211389e-06 
   -1.49521895e-04    -2.84786024e-05    -1.51690069e-05 
   -1.52503070e-04    -2.87601568e-05    -2.49965697e-05 
   -1.12379336e-04     2.81865550e-05     2.73606644e-05 
   -1.10416728e-04     2.72477293e-05     1.89436999e-05 
   -1.13958026e-04     2.98176096e-05     1.03145784e-05 
   -1.14245193e-04     3.10110788e-05     2.98835580e-06 
   -1.14748542e-04     3.15055189e-05     5.22863659e-08 
   -1.14748317e-04     3.15055865e-05    -5.26456100e-08 
   -1.14244974e-04     3.10110845e-05    -2.98936911e-06 
   -1.13959293e-04     2.98194377e-05    -1.03134428e-05 
   -1.10415440e-04     2.72475716e-05    -1.89428169e-05 
   -1.12362011e-04     2.81821905e-05    -2.73569094e-05 
   -1.09848963e-04     1.91119019e-05     2.71800002e-05 
   -1.07249370e-04     2.09304850e-05     2.09519951e-05 
   -1.10807020e-04     2.00245034e-05     1.15639863e-05 
   -1.11099620e-04     2.08539760e-05     3.44981359e-06 
   -1.11611880e-04     2.08979574e-05     8.32545320e-08 
   -1.11611569e-04     2.08979951e-05    -8.38006631e-08 
   -1.11099779e-04     2.08546088e-05    -3.45033628e-06 
   -1.10805918e-04     2.00248030e-05    -1.15651554e-05 
   -1.07253894e-04     2.09281282e-05    -2.09495812e-05 
   -1.09848342e-04     1.91107274e-05    -2.71799148e-05 
   -1.14061996e-04     1.05484152e-05     2.98277110e-05 
   -1.10797292e-04     1.15126801e-05     2.01399139e-05 
   -1.14547278e-04     1.28263309e-05     1.28162366e-05 
   -1.15265768e-04     1.17352857e-05     3.62445364e-06 
   -1.15813583e-04     1.17439376e-05     6.08168440e-08 
   -1.15813421e-04     1.17443073e-05    -6.12563965e-08 
   -1.15264830e-04     1.17355039e-05    -3.62628275e-06 
   -1.14548581e-04     1.28281092e-05    -1.28180312e-05 
   -1.10796177e-04     1.15140433e-05    -2.01401780e-05 
   -1.14063069e-04     1.05475575e-05    -2.98295288e-05 
   -1.14394503e-04     3.04216432e-06     3.10060565e-05 
   -1.11151508e-04     3.42469532e-06     2.08389521e-05 
   -1.15284496e-04     3.62296274e-06     1.17337948e-05 
   -1.15492290e-04     4.04119501e-06     4.04119501e-06 
   -1.16108194e-04     3.39215839e-06     7.89365083e-08 
   -1.16107701e-04     3.39234920e-06    -7.96720194e-08 
   -1.15492321e-04     4.04356013e-06    -4.04356013e-06 
   -1.15283543e-04     3.62482477e-06    -1.17340459e-05 
   -1.11151622e-04     3.42527865e-06    -2.08396292e-05 
   -1.14394161e-04     3.04336562e-06    -3.10060680e-05 
   -1.14748542e-04     5.22863659e-08     3.15055189e-05 
   -1.11611880e-04     8.32545320e-08     2.08979574e-05 
   -1.15813583e-04     6.08168440e-08     1.17439376e-05 
   -1.16108194e-04     7.89365083e-08     3.39215839e-06 
   -1.16608841e-04     1.40994211e-07     1.40994211e-07 
   -1.16608165e-04     1.42054167e-07    -1.42054167e-07 
   -1.16107701e-04     7.96720194e-08    -3.39234920e-06 
   -1.15813421e-04     6.12563965e-08    -1.17443073e-05 
   -1.11611569e-04     8.38006631e-08    -2.08979951e-05 
   -1.14748317e-04     5.26456100e-08    -3.15055865e-05 
   -1.14748542e-04    -5.22863659e-08     3.15055189e-05 
   -1.11611880e-04    -8.32545320e-08     2.08979574e-05 
   -1.15813583e-04    -6.08168440e-08     1.17439376e-05 
   -1.16108194e-04    -7.89365083e-08     3.39215839e-06 
   -1.16608841e-04    -1.40994211e-07     1.40994211e-07 
   -1.16608165e-04    -1.42054167e-07    -1.42054167e-07 
   -1.16107701e-04    -7.96720194e-08    -3.39234920e-06 
   -1.15813421e-04    -6.12563965e-08    -1.17443073e-05 
   -1.11611569e-04    -8.38006631e-08    -2.08979951e-05 
   -1.14748317e-04    -5.26456100e-08    -3.15055865e-05 
   -1.14394503e-04    -3.04216432e-06     3.10060565e-05 
   -1.11151508e-04    -3.42469532e-06     2.08389521e-05 
   -1.15284496e-04    -3.62296274e-06     1.17337948e-05 
   -1.15492290e-04    -4.04119501e-06     4.04119501e-06 
   -1.16108194e-04    -3.39215839e-06     7.89365083e-08 
   -1.16107701e-04    -3.39234920e-06    -7.96720194e-08 
   -1.15492321e-04    -4.04356013e-06    -4.04356013e-06 
   -1.15283543e-04    -3.62482477e-06    -1.17340459e-05 
   -1.11151622e-04    -3.42527865e-06    -2.08396292e-05 
   -1.14394161e-04    -3.04336562e-06    -3.10060680e-05 
   -1.14061996e-04    -1.05484152e-05     2.98277110e-05 
   -1.10797292e-04    -1.15126801e-05     2.01399139e-05 
   -1.14547278e-04    -1.28263309e-05     1.28162366e-05 
   -1.15265768e-04    -1.17352857e-05     3.62445364e-06 
   -1.15813583e-04    -1.17439376e-05     6.08168440e-08 
   -1.15813421e-04    -1.17443073e-05    -6.12563965e-08 
   -1.15264830e-04    -1.17355039e-05    -3.62628275e-06 
   -1.14548581e-04    -1.28281092e-05    -1.28180312e-05 
   -1.10796177e-04    -1.15140433e-05    -2.01401780e-05 
   -1.14063069e-04    -1.05475575e-05    -2.98295288e-05 
   -1.09848963e-04    -1.91119019e-05     2.71800002e-05 
   -1.07249370e-04    -2.09304850e-05     2.09519951e-05 
   -1.10807020e-04    -2.00245034e-05     1.15639863e-05 
   -1.11099620e-04    -2.08539760e-05     3.44981359e-06 
   -1.11611880e-04    -2.08979574e-05     8.32545320e-08 
   -1.11611569e-04    -2.08979951e-05    -8.38006631e-08 
   -1.11099779e-04    -2.08546088e-05    -3.45033628e-06 
   -1.10805918e-04    -2.00248030e-05    -1.15651554e-05 
   -1.07253894e-04    -2.09281282e-05    -2.09495812e-05 
   -1.09848342e-04    -1.91107274e-05    -2.71799148e-05 
   -1.12379336e-04    -2.81865550e-05     2.73606644e-05 
   -1.10416728e-04    -2.72477293e-05     1.89436999e-05 
   -1.13958026e-04    -2.98176096e-05     1.03145784e-05 
   -1.14245193e-04    -3.10110788e-05     2.98835580e-06 
   -1.14748542e-04    -3.15055189e-05     5.22863659e-08 
   -1.14748317e-04    -3.15055865e-05    -5.26456100e-08 
   -1.14244974e-04    -3.10110845e-05    -2.98936911e-06 
   -1.13959293e-04    -2.98194377e-05    -1.03134428e-05 
   -1.10415440e-04    -2.72475716e-05    -1.89428169e-05 
   -1.12362011e-04    -2.81821905e-05    -2.73569094e-05 
   -8.10546870e-05     2.35423154e-05     2.37839556e-05 
   -7.88087750e-05     2.12782020e-05     1.24807894e-05 
   -7.98288694e-05     2.22504149e-05     5.57127348e-06 
   -8.15628950e-05     2.26118726e-05     1.20245653e-06 
   -8.22034561e-05     2.27936147e-05     4.19401776e-08 
   -8.22033575e-05     2.27937236e-05    -4.21691158e-08 
   -8.15624087e-05     2.26118705e-05    -1.20314878e-06 
   -7.98277153e-05     2.22503954e-05    -5.57273481e-06 
   -7.88081442e-05     2.12786396e-05    -1.24815516e-05 
   -8.10465632e-05     2.35420870e-05    -2.37836819e-05 
   -7.89052311e-05     1.27655107e-05     2.13105168e-05 
   -7.54299052e-05     1.47475326e-05     1.47293718e-05 
   -7.65821594e-05     1.27834751e-05     6.67133598e-06 
   -7.84509374e-05     1.29265118e-05     1.35088371e-06 
   -7.91994735e-05     1.28396790e-05     5.72119748e-08 
   -7.91992079e-05     1.28397032e-05    -5.76114666e-08 
   -7.84498424e-05     1.29266030e-05    -1.35199992e-06 
   -7.65827883e-05     1.27838287e-05    -6.67107174e-06 
   -7.54340633e-05     1.47477462e-05    -1.47295366e-05 
   -7.89045957e-05     1.27662719e-05    -2.13109290e-05 
   -7.99706120e-05     5.94998580e-06     2.22574040e-05 
   -7.66888606e-05     6.62505345e-06     1.28600452e-05 
   -7.76265359e-05     7.91193555e-06     7.90151022e-06 
   -7.99268492e-05     6.16493792e-06     1.41792364e-06 
   -8.06542005e-05     6.10380904e-06     7.99151163e-08 
   -8.06537522e-05     6.10396572e-06    -8.04780894e-08 
   -7.99263603e-05     6.16520580e-06    -1.41840726e-06 
   -7.76278023e-05     7.91219309e-06    -7.90177855e-06 
   -7.66894160e-05     6.62485279e-06    -1.28603715e-05 
   -7.99693187e-05     5.95159451e-06    -2.22573844e-05 
   -8.16905872e-05     1.03007185e-06     2.26112284e-05 
   -7.84796757e-05     1.31651140e-06     1.29025649e-05 
   -7.99532823e-05     1.37942917e-06     6.12644345e-06 
   -8.16961644e-05     1.81424206e-06     1.81424206e-06 
   -8.25998450e-05     1.07131241e-06     6.15956651e-08 
   -8.25995766e-05     1.07143858e-06    -6.20112772e-08 
   -8.16944924e-05     1.81583311e-06    -1.81583311e-06 
   -7.99527702e-05     1.37993980e-06    -6.12673834e-06 
   -7.84785546e-05     1.31766782e-06    -1.29026855e-05 
   -8.16899932e-05     1.03090185e-06    -2.26112275e-05 
   -8.22034561e-05     4.19401776e-08     2.27936147e-05 
   -7.91994735e-05     5.72119748e-08     1.28396790e-05 
   -8.06542005e-05     7.99151163e-08     6.10380904e-06 
   -8.25998450e-05     6.15956651e-08     1.07131241e-06 
   -8.32687664e-05     1.18395906e-07     1.18395906e-07 
   -8.32681999e-05     1.19148778e-07    -1.19148778e-07 
   -8.25995766e-05     6.20112772e-08    -1.07143858e-06 
   -8.06537522e-05     8.04780894e-08    -6.10396572e-06 
   -7.91992079e-05     5.76114666e-08    -1.28397032e-05 
   -8.22033575e-05     4.21691158e-08    -2.27937236e-05 
   -8.22034561e-05    -4.19401776e-08     2.27936147e-05 
   -7.91994735e-05    -5.72119748e-08     1.28396790e-05 
   -8.06542005e-05    -7.99151163e-08     6.10380904e-06 
   -8.25998450e-05    -6.15956651e-08     1.07131241e-06 
   -8.32687664e-05    -1.18395906e-07     1.18395906e-07 
   -8.32681999e-05    -1.19148778e-07    -1.19148778e-07 
   -8.25995766e-05    -6.20112772e-08    -1.07143858e-06 
   -8.06537522e-05    -8.04780894e-08    -6.10396572e-06 
   -7.91992079e-05    -5.76114666e-08    -1.28397032e-05 
   -8.22033575e-05    -4.21691158e-08    -2.27937236e-05 
   -8.16905872e-05    -1.03007185e-06     2.26112284e-05 
   -7.84796757e-05    -1.31651140e-06     1.29025649e-05 
   -7.99532823e-05    -1.37942917e-06     6.12644345e-06 
   -8.16961644e-05    -1.81424206e-06     1.81424206e-06 
   -8.25998450e-05    -1.07131241e-06     6.15956651e-08 
   -8.25995766e-05    -1.07143858e-06    -6.20112772e-08 
   -8.16944924e-05    -1.81583311e-06    -1.81583311e-06 
   -7.99527702e-05    -1.37993980e-06    -6.12673834e-06 
   -7.84785546e-05    -1.31766782e-06    -1.29026855e-05 
   -8.16899932e-05    -1.03090185e-06    -2.26112275e-05 
   -7.99706120e-05    -5.94998580e-06     2.22574040e-05 
   -7.66888606e-05    -6.62505345e-06     1.28600452e-05 
   -7.76265359e-05    -7.91193555e-06     7.90151022e-06 
   -7.99268492e-05    -6.16493792e-06     1.41792364e-06 
   -8.06542005e-05    -6.10380904e-06     7.99151163e-08 
   -8.06537522e-05    -6.10396572e-06    -8.04780894e-08 
   -7.99263603e-05    -6.16520580e-06    -1.41840726e-06 
   -7.76278023e-05    -7.91219309e-06    -7.90177855e-06 
   -7.66894160e-05    -6.62485279e-06    -1.28603715e-05 
   -7.99693187e-05    -5.95159451e-06    -2.22573844e-05 
   -7.89052311e-05    -1.27655107e-05     2.13105168e-05 
   -7.54299052e-05    -1.47475326e-05     1.47293718e-05 
   -7.65821594e-05    -1.27834751e-05     6.67133598e-06 
   -7.84509374e-05    -1.29265118e-05     1.35088371e-06 
   -7.91994735e-05    -1.28396790e-05     5.72119748e-08 
   -7.91992079e-05    -1.28397032e-05    -5.76114666e-08 
   -7.84498424e-05    -1.29266030e-05    -1.35199992e-06 
   -7.65827883e-05    -1.27838287e-05    -6.67107174e-06 
   -7.54340633e-05    -1.47477462e-05    -1.47295366e-05 
   -7.89045957e-05    -1.27662719e-05    -2.13109290e-05 
   -8.10546870e-05    -2.35423154e-05     2.37839556e-05 
   -7.88087750e-05    -2.12782020e-05     1.24807894e-05 
   -7.98288694e-05    -2.22504149e-05     5.57127348e-06 
   -8.15628950e-05    -2.26118726e-05     1.20245653e-06 
   -8.22034561e-05    -2.27936147e-05     4.19401776e-08 
   -8.22033575e-05    -2.27937236e-05    -4.21691158e-08 
   -8.15624087e-05    -2.26118705e-05    -1.20314878e-06 
   -7.98277153e-05    -2.22503954e-05    -5.57273481e-06 
   -7.88081442e-05    -2.12786396e-05    -1.24815516e-05 
   -8.10465632e-05    -2.35420870e-05    -2.37836819e-05 
   -4.41942995e-05     1.49794367e-05     1.58273161e-05 
   -4.39250243e-05     1.09917183e-05     5.83599245e-06 
   -4.44118078e-05     1.12577071e-05     2.44546009e-06 
   -4.57667087e-05     1.12849888e-05     1.05837977e-06 
   -4.64255961e-05     1.13704292e-05     5.22955592e-08 
   -4.64254236e-05     1.13704073e-05    -5.25897921e-08 
   -4.57657911e-05     1.12849935e-05    -1.05922533e-06 
   -4.44114019e-05     1.12577924e-05    -2.44563878e-06 
   -4.39249200e-05     1.09918834e-05    -5.83637819e-06 
   -4.41924691e-05     1.49794720e-05    -1.58273511e-05 
   -4.45281408e-05     6.37571543e-06     1.10321484e-05 
   -4.45225820e-05     8.63873371e-06     8.60378133e-06 
   -4.54278345e-05     5.64540864e-06     2.79664385e-06 
   -4.68382536e-05     5.68623147e-06     1.18448740e-06 
   -4.76041288e-05     5.60764956e-06     7.20445901e-08 
   -4.76037344e-05     5.60770730e-06    -7.25117534e-08 
   -4.68380397e-05     5.68618252e-06    -1.18458601e-06 
   -4.54277002e-05     5.64553608e-06    -2.79662658e-06 
   -4.45244308e-05     8.63880526e-06    -8.60385697e-06 
   -4.45279383e-05     6.37617641e-06    -1.10323140e-05 
   -4.47292977e-05     2.31378429e-06     1.12533198e-05 
   -4.54592531e-05     2.79920479e-06     5.67743730e-06 
   -4.53947971e-05     3.97921012e-06     3.97295291e-06 
   -4.71518365e-05     2.18285888e-06     1.21926268e-06 
   -4.79284460e-05     2.05877430e-06     5.33283619e-08 
   -4.79282326e-05     2.05884355e-06    -5.35773775e-08 
   -4.71515480e-05     2.18306223e-06    -1.21950847e-06 
   -4.53945405e-05     3.97925555e-06    -3.97300253e-06 
   -4.54591007e-05     2.79919099e-06    -5.67758979e-06 
   -4.47287956e-05     2.31402523e-06    -1.12534068e-05 
   -4.58414610e-05     9.50191934e-07     1.12836158e-05 
   -4.68540233e-05     1.15396193e-06     5.66196321e-06 
   -4.71585778e-05     1.20786163e-06     2.17145784e-06 
   -4.83898231e-05     1.58601910e-06     1.58601910e-06 
   -4.93162781e-05     8.47438079e-07     6.38611985e-08 
   -4.93160798e-05     8.47517319e-07    -6.41144946e-08 
   -4.83893193e-05     1.58640081e-06    -1.58640081e-06 
   -4.71582742e-05     1.20812224e-06    -2.17167601e-06 
   -4.68537868e-05     1.15408237e-06    -5.66193190e-06 
   -4.58404358e-05     9.51143326e-07    -1.12836203e-05 
   -4.64255961e-05     5.22955592e-08     1.13704292e-05 
   -4.76041288e-05     7.20445901e-08     5.60764956e-06 
   -4.79284460e-05     5.33283619e-08     2.05877430e-06 