# vtk DataFile Version 2.0 
generated by Lattice Boltzmann Method time =   1.67431578e+00
ASCII 
DATASET UNSTRUCTURED_GRID

POINTS   1000 FLOAT 
  0.00000000e+00   0.00000000e+00   0.00000000e+00 
  0.00000000e+00   0.00000000e+00   1.00000000e-01 
  0.00000000e+00   0.00000000e+00   2.00000000e-01 
  0.00000000e+00   0.00000000e+00   3.00000000e-01 
  0.00000000e+00   0.00000000e+00   4.00000000e-01 
  0.00000000e+00   0.00000000e+00   5.00000000e-01 
  0.00000000e+00   0.00000000e+00   6.00000000e-01 
  0.00000000e+00   0.00000000e+00   7.00000000e-01 
  0.00000000e+00   0.00000000e+00   8.00000000e-01 
  0.00000000e+00   0.00000000e+00   9.00000000e-01 
  0.00000000e+00   1.00000000e-01   0.00000000e+00 
  0.00000000e+00   1.00000000e-01   1.00000000e-01 
  0.00000000e+00   1.00000000e-01   2.00000000e-01 
  0.00000000e+00   1.00000000e-01   3.00000000e-01 
  0.00000000e+00   1.00000000e-01   4.00000000e-01 
  0.00000000e+00   1.00000000e-01   5.00000000e-01 
  0.00000000e+00   1.00000000e-01   6.00000000e-01 
  0.00000000e+00   1.00000000e-01   7.00000000e-01 
  0.00000000e+00   1.00000000e-01   8.00000000e-01 
  0.00000000e+00   1.00000000e-01   9.00000000e-01 
  0.00000000e+00   2.00000000e-01   0.00000000e+00 
  0.00000000e+00   2.00000000e-01   1.00000000e-01 
  0.00000000e+00   2.00000000e-01   2.00000000e-01 
  0.00000000e+00   2.00000000e-01   3.00000000e-01 
  0.00000000e+00   2.00000000e-01   4.00000000e-01 
  0.00000000e+00   2.00000000e-01   5.00000000e-01 
  0.00000000e+00   2.00000000e-01   6.00000000e-01 
  0.00000000e+00   2.00000000e-01   7.00000000e-01 
  0.00000000e+00   2.00000000e-01   8.00000000e-01 
  0.00000000e+00   2.00000000e-01   9.00000000e-01 
  0.00000000e+00   3.00000000e-01   0.00000000e+00 
  0.00000000e+00   3.00000000e-01   1.00000000e-01 
  0.00000000e+00   3.00000000e-01   2.00000000e-01 
  0.00000000e+00   3.00000000e-01   3.00000000e-01 
  0.00000000e+00   3.00000000e-01   4.00000000e-01 
  0.00000000e+00   3.00000000e-01   5.00000000e-01 
  0.00000000e+00   3.00000000e-01   6.00000000e-01 
  0.00000000e+00   3.00000000e-01   7.00000000e-01 
  0.00000000e+00   3.00000000e-01   8.00000000e-01 
  0.00000000e+00   3.00000000e-01   9.00000000e-01 
  0.00000000e+00   4.00000000e-01   0.00000000e+00 
  0.00000000e+00   4.00000000e-01   1.00000000e-01 
  0.00000000e+00   4.00000000e-01   2.00000000e-01 
  0.00000000e+00   4.00000000e-01   3.00000000e-01 
  0.00000000e+00   4.00000000e-01   4.00000000e-01 
  0.00000000e+00   4.00000000e-01   5.00000000e-01 
  0.00000000e+00   4.00000000e-01   6.00000000e-01 
  0.00000000e+00   4.00000000e-01   7.00000000e-01 
  0.00000000e+00   4.00000000e-01   8.00000000e-01 
  0.00000000e+00   4.00000000e-01   9.00000000e-01 
  0.00000000e+00   5.00000000e-01   0.00000000e+00 
  0.00000000e+00   5.00000000e-01   1.00000000e-01 
  0.00000000e+00   5.00000000e-01   2.00000000e-01 
  0.00000000e+00   5.00000000e-01   3.00000000e-01 
  0.00000000e+00   5.00000000e-01   4.00000000e-01 
  0.00000000e+00   5.00000000e-01   5.00000000e-01 
  0.00000000e+00   5.00000000e-01   6.00000000e-01 
  0.00000000e+00   5.00000000e-01   7.00000000e-01 
  0.00000000e+00   5.00000000e-01   8.00000000e-01 
  0.00000000e+00   5.00000000e-01   9.00000000e-01 
  0.00000000e+00   6.00000000e-01   0.00000000e+00 
  0.00000000e+00   6.00000000e-01   1.00000000e-01 
  0.00000000e+00   6.00000000e-01   2.00000000e-01 
  0.00000000e+00   6.00000000e-01   3.00000000e-01 
  0.00000000e+00   6.00000000e-01   4.00000000e-01 
  0.00000000e+00   6.00000000e-01   5.00000000e-01 
  0.00000000e+00   6.00000000e-01   6.00000000e-01 
  0.00000000e+00   6.00000000e-01   7.00000000e-01 
  0.00000000e+00   6.00000000e-01   8.00000000e-01 
  0.00000000e+00   6.00000000e-01   9.00000000e-01 
  0.00000000e+00   7.00000000e-01   0.00000000e+00 
  0.00000000e+00   7.00000000e-01   1.00000000e-01 
  0.00000000e+00   7.00000000e-01   2.00000000e-01 
  0.00000000e+00   7.00000000e-01   3.00000000e-01 
  0.00000000e+00   7.00000000e-01   4.00000000e-01 
  0.00000000e+00   7.00000000e-01   5.00000000e-01 
  0.00000000e+00   7.00000000e-01   6.00000000e-01 
  0.00000000e+00   7.00000000e-01   7.00000000e-01 
  0.00000000e+00   7.00000000e-01   8.00000000e-01 
  0.00000000e+00   7.00000000e-01   9.00000000e-01 
  0.00000000e+00   8.00000000e-01   0.00000000e+00 
  0.00000000e+00   8.00000000e-01   1.00000000e-01 
  0.00000000e+00   8.00000000e-01   2.00000000e-01 
  0.00000000e+00   8.00000000e-01   3.00000000e-01 
  0.00000000e+00   8.00000000e-01   4.00000000e-01 
  0.00000000e+00   8.00000000e-01   5.00000000e-01 
  0.00000000e+00   8.00000000e-01   6.00000000e-01 
  0.00000000e+00   8.00000000e-01   7.00000000e-01 
  0.00000000e+00   8.00000000e-01   8.00000000e-01 
  0.00000000e+00   8.00000000e-01   9.00000000e-01 
  0.00000000e+00   9.00000000e-01   0.00000000e+00 
  0.00000000e+00   9.00000000e-01   1.00000000e-01 
  0.00000000e+00   9.00000000e-01   2.00000000e-01 
  0.00000000e+00   9.00000000e-01   3.00000000e-01 
  0.00000000e+00   9.00000000e-01   4.00000000e-01 
  0.00000000e+00   9.00000000e-01   5.00000000e-01 
  0.00000000e+00   9.00000000e-01   6.00000000e-01 
  0.00000000e+00   9.00000000e-01   7.00000000e-01 
  0.00000000e+00   9.00000000e-01   8.00000000e-01 
  0.00000000e+00   9.00000000e-01   9.00000000e-01 
  1.00000000e-01   0.00000000e+00   0.00000000e+00 
  1.00000000e-01   0.00000000e+00   1.00000000e-01 
  1.00000000e-01   0.00000000e+00   2.00000000e-01 
  1.00000000e-01   0.00000000e+00   3.00000000e-01 
  1.00000000e-01   0.00000000e+00   4.00000000e-01 
  1.00000000e-01   0.00000000e+00   5.00000000e-01 
  1.00000000e-01   0.00000000e+00   6.00000000e-01 
  1.00000000e-01   0.00000000e+00   7.00000000e-01 
  1.00000000e-01   0.00000000e+00   8.00000000e-01 
  1.00000000e-01   0.00000000e+00   9.00000000e-01 
  1.00000000e-01   1.00000000e-01   0.00000000e+00 
  1.00000000e-01   1.00000000e-01   1.00000000e-01 
  1.00000000e-01   1.00000000e-01   2.00000000e-01 
  1.00000000e-01   1.00000000e-01   3.00000000e-01 
  1.00000000e-01   1.00000000e-01   4.00000000e-01 
  1.00000000e-01   1.00000000e-01   5.00000000e-01 
  1.00000000e-01   1.00000000e-01   6.00000000e-01 
  1.00000000e-01   1.00000000e-01   7.00000000e-01 
  1.00000000e-01   1.00000000e-01   8.00000000e-01 
  1.00000000e-01   1.00000000e-01   9.00000000e-01 
  1.00000000e-01   2.00000000e-01   0.00000000e+00 
  1.00000000e-01   2.00000000e-01   1.00000000e-01 
  1.00000000e-01   2.00000000e-01   2.00000000e-01 
  1.00000000e-01   2.00000000e-01   3.00000000e-01 
  1.00000000e-01   2.00000000e-01   4.00000000e-01 
  1.00000000e-01   2.00000000e-01   5.00000000e-01 
  1.00000000e-01   2.00000000e-01   6.00000000e-01 
  1.00000000e-01   2.00000000e-01   7.00000000e-01 
  1.00000000e-01   2.00000000e-01   8.00000000e-01 
  1.00000000e-01   2.00000000e-01   9.00000000e-01 
  1.00000000e-01   3.00000000e-01   0.00000000e+00 
  1.00000000e-01   3.00000000e-01   1.00000000e-01 
  1.00000000e-01   3.00000000e-01   2.00000000e-01 
  1.00000000e-01   3.00000000e-01   3.00000000e-01 
  1.00000000e-01   3.00000000e-01   4.00000000e-01 
  1.00000000e-01   3.00000000e-01   5.00000000e-01 
  1.00000000e-01   3.00000000e-01   6.00000000e-01 
  1.00000000e-01   3.00000000e-01   7.00000000e-01 
  1.00000000e-01   3.00000000e-01   8.00000000e-01 
  1.00000000e-01   3.00000000e-01   9.00000000e-01 
  1.00000000e-01   4.00000000e-01   0.00000000e+00 
  1.00000000e-01   4.00000000e-01   1.00000000e-01 
  1.00000000e-01   4.00000000e-01   2.00000000e-01 
  1.00000000e-01   4.00000000e-01   3.00000000e-01 
  1.00000000e-01   4.00000000e-01   4.00000000e-01 
  1.00000000e-01   4.00000000e-01   5.00000000e-01 
  1.00000000e-01   4.00000000e-01   6.00000000e-01 
  1.00000000e-01   4.00000000e-01   7.00000000e-01 
  1.00000000e-01   4.00000000e-01   8.00000000e-01 
  1.00000000e-01   4.00000000e-01   9.00000000e-01 
  1.00000000e-01   5.00000000e-01   0.00000000e+00 
  1.00000000e-01   5.00000000e-01   1.00000000e-01 
  1.00000000e-01   5.00000000e-01   2.00000000e-01 
  1.00000000e-01   5.00000000e-01   3.00000000e-01 
  1.00000000e-01   5.00000000e-01   4.00000000e-01 
  1.00000000e-01   5.00000000e-01   5.00000000e-01 
  1.00000000e-01   5.00000000e-01   6.00000000e-01 
  1.00000000e-01   5.00000000e-01   7.00000000e-01 
  1.00000000e-01   5.00000000e-01   8.00000000e-01 
  1.00000000e-01   5.00000000e-01   9.00000000e-01 
  1.00000000e-01   6.00000000e-01   0.00000000e+00 
  1.00000000e-01   6.00000000e-01   1.00000000e-01 
  1.00000000e-01   6.00000000e-01   2.00000000e-01 
  1.00000000e-01   6.00000000e-01   3.00000000e-01 
  1.00000000e-01   6.00000000e-01   4.00000000e-01 
  1.00000000e-01   6.00000000e-01   5.00000000e-01 
  1.00000000e-01   6.00000000e-01   6.00000000e-01 
  1.00000000e-01   6.00000000e-01   7.00000000e-01 
  1.00000000e-01   6.00000000e-01   8.00000000e-01 
  1.00000000e-01   6.00000000e-01   9.00000000e-01 
  1.00000000e-01   7.00000000e-01   0.00000000e+00 
  1.00000000e-01   7.00000000e-01   1.00000000e-01 
  1.00000000e-01   7.00000000e-01   2.00000000e-01 
  1.00000000e-01   7.00000000e-01   3.00000000e-01 
  1.00000000e-01   7.00000000e-01   4.00000000e-01 
  1.00000000e-01   7.00000000e-01   5.00000000e-01 
  1.00000000e-01   7.00000000e-01   6.00000000e-01 
  1.00000000e-01   7.00000000e-01   7.00000000e-01 
  1.00000000e-01   7.00000000e-01   8.00000000e-01 
  1.00000000e-01   7.00000000e-01   9.00000000e-01 
  1.00000000e-01   8.00000000e-01   0.00000000e+00 
  1.00000000e-01   8.00000000e-01   1.00000000e-01 
  1.00000000e-01   8.00000000e-01   2.00000000e-01 
  1.00000000e-01   8.00000000e-01   3.00000000e-01 
  1.00000000e-01   8.00000000e-01   4.00000000e-01 
  1.00000000e-01   8.00000000e-01   5.00000000e-01 
  1.00000000e-01   8.00000000e-01   6.00000000e-01 
  1.00000000e-01   8.00000000e-01   7.00000000e-01 
  1.00000000e-01   8.00000000e-01   8.00000000e-01 
[...]
POINT_DATA   1000
FIELD solution 1
u 3   1000 DOUBLE
   -2.02571067e-04     5.54580139e-05     4.97530545e-05 
   -1.96217489e-04     5.06536082e-05     4.77677044e-05 
   -1.85539172e-04     5.37178088e-05     3.28392405e-05 
   -1.80152170e-04     5.49195700e-05     2.93933583e-05 
   -1.78145469e-04     5.42446903e-05     3.30553911e-06 
   -1.78145425e-04     5.42441881e-05    -3.32874026e-06 
   -1.80154723e-04     5.49179285e-05    -2.94181059e-05 
   -1.85541822e-04     5.37153366e-05    -3.28615029e-05 
   -1.96226754e-04     5.06494977e-05    -4.77957290e-05 
   -2.02532283e-04     5.54325399e-05    -4.97646374e-05 
   -1.90955700e-04     3.45883429e-05     5.25336467e-05 
   -1.71749839e-04     4.37069057e-05     4.36885949e-05 
   -1.63745206e-04     4.14581676e-05     3.51319559e-05 
   -1.58079884e-04     4.72443115e-05     2.42582234e-05 
   -1.56795974e-04     4.66196685e-05     6.08592660e-06 
   -1.56796456e-04     4.66153047e-05    -6.09838965e-06 
   -1.58081643e-04     4.72482438e-05    -2.42718222e-05 
   -1.63749304e-04     4.14538616e-05    -3.51424934e-05 
   -1.71748386e-04     4.37246948e-05    -4.37155786e-05 
   -1.90960300e-04     3.45939596e-05    -5.25480198e-05 
   -1.84843285e-04     3.90976574e-05     5.45354669e-05 
   -1.63666208e-04     3.63738521e-05     4.48467192e-05 
   -1.56749692e-04     4.16177873e-05     3.99981797e-05 
   -1.50353780e-04     4.29037398e-05     2.73008399e-05 
   -1.48679717e-04     4.48455228e-05     7.37512407e-06 
   -1.48680329e-04     4.48444464e-05    -7.38743115e-06 
   -1.50355196e-04     4.29036686e-05    -2.73141673e-05 
   -1.56748464e-04     4.16257448e-05    -4.00167581e-05 
   -1.63671842e-04     3.63753414e-05    -4.48618886e-05 
   -1.84849601e-04     3.91125928e-05    -5.45506154e-05 
   -1.78612931e-04     2.22964235e-05     5.57850085e-05 
   -1.57394221e-04     2.32852153e-05     4.63188558e-05 
   -1.49965604e-04     2.44981723e-05     4.23549273e-05 
   -1.42776923e-04     2.84420843e-05     2.81507240e-05 
   -1.41070080e-04     3.00539205e-05     9.16350244e-06 
   -1.41070647e-04     3.00504997e-05    -9.17676857e-06 
   -1.42776150e-04     2.84550739e-05    -2.81750642e-05 
   -1.49967961e-04     2.44953931e-05    -4.23680203e-05 
   -1.57397980e-04     2.32849792e-05    -4.63315497e-05 
   -1.78617744e-04     2.22950913e-05    -5.58005252e-05 
   -1.77195012e-04     1.09510462e-05     5.49481121e-05 
   -1.55820723e-04     8.32145873e-06     4.79937037e-05 
   -1.48151324e-04     1.00787813e-05     4.44899412e-05 
   -1.40917011e-04     9.77356310e-06     2.93953905e-05 
   -1.39214158e-04     1.12164217e-05     9.60559193e-06 
   -1.39213971e-04     1.12278827e-05    -9.63056637e-06 
   -1.40918305e-04     9.77186720e-06    -2.94086074e-05 
   -1.48153636e-04     1.00794112e-05    -4.45038967e-05 
   -1.55824737e-04     8.32012764e-06    -4.80075345e-05 
   -1.77200411e-04     1.09565103e-05    -5.49631907e-05 
   -1.77195012e-04    -1.09510462e-05     5.49481121e-05 
   -1.55820723e-04    -8.32145873e-06     4.79937037e-05 
   -1.48151324e-04    -1.00787813e-05     4.44899412e-05 
   -1.40917011e-04    -9.77356310e-06     2.93953905e-05 
   -1.39214158e-04    -1.12164217e-05     9.60559193e-06 
   -1.39213971e-04    -1.12278827e-05    -9.63056637e-06 
   -1.40918305e-04    -9.77186720e-06    -2.94086074e-05 
   -1.48153636e-04    -1.00794112e-05    -4.45038967e-05 
   -1.55824737e-04    -8.32012764e-06    -4.80075345e-05 
   -1.77200411e-04    -1.09565103e-05    -5.49631907e-05 
   -1.78612931e-04    -2.22964235e-05     5.57850085e-05 
   -1.57394221e-04    -2.32852153e-05     4.63188558e-05 
   -1.49965604e-04    -2.44981723e-05     4.23549273e-05 
   -1.42776923e-04    -2.84420843e-05     2.81507240e-05 
   -1.41070080e-04    -3.00539205e-05     9.16350244e-06 
   -1.41070647e-04    -3.00504997e-05    -9.17676857e-06 
   -1.42776150e-04    -2.84550739e-05    -2.81750642e-05 
   -1.49967961e-04    -2.44953931e-05    -4.23680203e-05 
   -1.57397980e-04    -2.32849792e-05    -4.63315497e-05 
   -1.78617744e-04    -2.22950913e-05    -5.58005252e-05 
   -1.84843285e-04    -3.90976574e-05     5.45354669e-05 
   -1.63666208e-04    -3.63738521e-05     4.48467192e-05 
   -1.56749692e-04    -4.16177873e-05     3.99981797e-05 
   -1.50353780e-04    -4.29037398e-05     2.73008399e-05 
   -1.48679717e-04    -4.48455228e-05     7.37512407e-06 
   -1.48680329e-04    -4.48444464e-05    -7.38743115e-06 
   -1.50355196e-04    -4.29036686e-05    -2.73141673e-05 
   -1.56748464e-04    -4.16257448e-05    -4.00167581e-05 
   -1.63671842e-04    -3.63753414e-05    -4.48618886e-05 
   -1.84849601e-04    -3.91125928e-05    -5.45506154e-05 
   -1.90955700e-04    -3.45883429e-05     5.25336467e-05 
   -1.71749839e-04    -4.37069057e-05     4.36885949e-05 
   -1.63745206e-04    -4.14581676e-05     3.51319559e-05 
   -1.58079884e-04    -4.72443115e-05     2.42582234e-05 
   -1.56795974e-04    -4.66196685e-05     6.08592660e-06 
   -1.56796456e-04    -4.66153047e-05    -6.09838965e-06 
   -1.58081643e-04    -4.72482438e-05    -2.42718222e-05 
   -1.63749304e-04    -4.14538616e-05    -3.51424934e-05 
   -1.71748386e-04    -4.37246948e-05    -4.37155786e-05 
   -1.90960300e-04    -3.45939596e-05    -5.25480198e-05 
   -2.02571067e-04    -5.54580139e-05     4.97530545e-05 
   -1.96217489e-04    -5.06536082e-05     4.77677044e-05 
   -1.85539172e-04    -5.37178088e-05     3.28392405e-05 
   -1.80152170e-04    -5.49195700e-05     2.93933583e-05 
   -1.78145469e-04    -5.42446903e-05     3.30553911e-06 
   -1.78145425e-04    -5.42441881e-05    -3.32874026e-06 
   -1.80154723e-04    -5.49179285e-05    -2.94181059e-05 
   -1.85541822e-04    -5.37153366e-05    -3.28615029e-05 
   -1.96226754e-04    -5.06494977e-05    -4.77957290e-05 
   -2.02532283e-04    -5.54325399e-05    -4.97646374e-05 
   -1.72196610e-04     4.06828766e-05     4.19116361e-05 
   -1.49969892e-04     3.83039848e-05     3.33685502e-05 
   -1.47510809e-04     4.14940135e-05     2.97931872e-05 
   -1.34730888e-04     4.28167666e-05     2.00646536e-05 
   -1.33071120e-04     4.18847576e-05     4.95635594e-06 
   -1.33077976e-04     4.18846807e-05    -4.96424891e-06 
   -1.34725949e-04     4.28164891e-05    -2.00722574e-05 
   -1.47518790e-04     4.14926696e-05    -2.98007707e-05 
   -1.49963633e-04     3.83000138e-05    -3.33748899e-05 
   -1.72189254e-04     4.06879020e-05    -4.19198680e-05 
   -1.57568819e-04     2.72113784e-05     3.93627134e-05 
   -1.39570146e-04     3.94607909e-05     3.32915377e-05 
   -1.32724673e-04     3.67359272e-05     3.35855230e-05 
   -1.21495955e-04     4.27357522e-05     1.73323388e-05 
   -1.19539709e-04     4.16166899e-05     7.36085661e-06 
   -1.19546105e-04     4.16097539e-05    -7.36545848e-06 
   -1.21491110e-04     4.27420455e-05    -1.73345596e-05 
   -1.32730929e-04     3.67268544e-05    -3.35931275e-05 
   -1.39574172e-04     3.94602702e-05    -3.32789630e-05 
   -1.57581367e-04     2.72052259e-05    -3.93661781e-05 
   -1.42321154e-04     3.32817808e-05     4.22211940e-05 
   -1.29043969e-04     3.07484191e-05     4.15178083e-05 
   -1.21119842e-04     3.66833988e-05     3.49921244e-05 
   -1.11714137e-04     3.58750619e-05     2.17182975e-05 
   -1.08111455e-04     3.78034486e-05     6.32622303e-06 
   -1.08114822e-04     3.78041569e-05    -6.33039135e-06 
   -1.11710562e-04     3.58727517e-05    -2.17230704e-05 
   -1.21128585e-04     3.66859711e-05    -3.49972492e-05 
   -1.29040387e-04     3.07475971e-05    -4.15239636e-05 
   -1.42323939e-04     3.32937841e-05    -4.22292156e-05 
   -1.36524054e-04     1.68511601e-05     4.34908501e-05 
   -1.22875914e-04     1.94933019e-05     4.10217430e-05 
   -1.11591167e-04     1.93831799e-05     3.65404862e-05 
   -1.02622282e-04     2.31740770e-05     2.24365380e-05 
   -9.74238331e-05     2.47685988e-05     8.11486502e-06 
   -9.74255689e-05     2.47649425e-05    -8.12138844e-06 
   -1.02620910e-04     2.31766248e-05    -2.24422223e-05 
   -1.11592358e-04     1.93782255e-05    -3.65471526e-05 
   -1.22877803e-04     1.94933810e-05    -4.10240528e-05 
   -1.36531434e-04     1.68443031e-05    -4.35000952e-05 
   -1.31097139e-04     9.32016010e-06     4.25761666e-05 
   -1.18333915e-04     6.42122050e-06     4.38201693e-05 
   -1.06937277e-04     8.49044323e-06     3.75611040e-05 
   -9.77437597e-05     7.69316380e-06     2.43378626e-05 
   -9.29069024e-05     9.28463597e-06     8.10046703e-06 
   -9.29101771e-05     9.28839117e-06    -8.10919579e-06 
   -9.77424176e-05     7.69149961e-06    -2.43437342e-05 
   -1.06939637e-04     8.49302424e-06    -3.75677791e-05 
   -1.18334965e-04     6.41915895e-06    -4.38263446e-05 
   -1.31101807e-04     9.32546253e-06    -4.25849328e-05 
   -1.31097139e-04    -9.32016010e-06     4.25761666e-05 
   -1.18333915e-04    -6.42122050e-06     4.38201693e-05 
   -1.06937277e-04    -8.49044323e-06     3.75611040e-05 
   -9.77437597e-05    -7.69316380e-06     2.43378626e-05 
   -9.29069024e-05    -9.28463597e-06     8.10046703e-06 
   -9.29101771e-05    -9.28839117e-06    -8.10919579e-06 
   -9.77424176e-05    -7.69149961e-06    -2.43437342e-05 
   -1.06939637e-04    -8.49302424e-06    -3.75677791e-05 
   -1.18334965e-04    -6.41915894e-06    -4.38263446e-05 
   -1.31101807e-04    -9.32546253e-06    -4.25849328e-05 
   -1.36524054e-04    -1.68511601e-05     4.34908501e-05 
   -1.22875914e-04    -1.94933019e-05     4.10217430e-05 
   -1.11591167e-04    -1.93831799e-05     3.65404862e-05 
   -1.02622282e-04    -2.31740770e-05     2.24365380e-05 
   -9.74238331e-05    -2.47685988e-05     8.11486502e-06 
   -9.74255689e-05    -2.47649425e-05    -8.12138844e-06 
   -1.02620910e-04    -2.31766248e-05    -2.24422223e-05 
   -1.11592358e-04    -1.93782255e-05    -3.65471526e-05 
   -1.22877803e-04    -1.94933810e-05    -4.10240528e-05 
   -1.36531434e-04    -1.68443031e-05    -4.35000952e-05 
   -1.42321154e-04    -3.32817808e-05     4.22211940e-05 
   -1.29043969e-04    -3.07484191e-05     4.15178083e-05 
   -1.21119842e-04    -3.66833988e-05     3.49921244e-05 
   -1.11714137e-04    -3.58750619e-05     2.17182975e-05 
   -1.08111455e-04    -3.78034486e-05     6.32622303e-06 
   -1.08114822e-04    -3.78041569e-05    -6.33039135e-06 
   -1.11710562e-04    -3.58727517e-05    -2.17230704e-05 
   -1.21128585e-04    -3.66859711e-05    -3.49972492e-05 
   -1.29040387e-04    -3.07475971e-05    -4.15239636e-05 
   -1.42323939e-04    -3.32937841e-05    -4.22292156e-05 
   -1.57568819e-04    -2.72113784e-05     3.93627134e-05 
   -1.39570146e-04    -3.94607909e-05     3.32915377e-05 
   -1.32724673e-04    -3.67359272e-05     3.35855230e-05 
   -1.21495955e-04    -4.27357522e-05     1.73323388e-05 
   -1.19539709e-04    -4.16166899e-05     7.36085661e-06 
   -1.19546105e-04    -4.16097539e-05    -7.36545848e-06 
   -1.21491110e-04    -4.27420455e-05    -1.73345596e-05 
   -1.32730929e-04    -3.67268544e-05    -3.35931275e-05 
   -1.39574172e-04    -3.94602702e-05    -3.32789630e-05 
   -1.57581367e-04    -2.72052259e-05    -3.93661781e-05 
   -1.72196610e-04    -4.06828766e-05     4.19116361e-05 
   -1.49969892e-04    -3.83039848e-05     3.33685502e-05 
   -1.47510809e-04    -4.14940135e-05     2.97931872e-05 
   -1.34730888e-04    -4.28167666e-05     2.00646536e-05 
   -1.33071120e-04    -4.18847576e-05     4.95635594e-06 
   -1.33077976e-04    -4.18846807e-05    -4.96424891e-06 
   -1.34725949e-04    -4.28164891e-05    -2.00722574e-05 
   -1.47518790e-04    -4.14926696e-05    -2.98007707e-05 
   -1.49963633e-04    -3.83000138e-05    -3.33748899e-05 
   -1.72189254e-04    -4.06879020e-05    -4.19198680e-05 
   -1.15172432e-04     3.34555172e-05     3.60606462e-05 
   -1.14146789e-04     3.21593062e-05     2.84701071e-05 
   -9.99294253e-05     3.77334264e-05     2.17588995e-05 
   -9.23097834e-05     3.84698518e-05     1.80548621e-05 
   -8.58566181e-05     3.83760736e-05     3.03636961e-06 
   -8.58573614e-05     3.83753061e-05    -3.04496951e-06 
   -9.23122477e-05     3.84695477e-05    -1.80650269e-05 
   -9.99309458e-05     3.77312868e-05    -2.17655081e-05 
   -1.14153166e-04     3.21575762e-05    -2.84830858e-05 
   -1.15156526e-04     3.34550197e-05    -3.60678910e-05 
   -1.08086291e-04     2.64138468e-05     3.27466815e-05 
   -1.04047695e-04     3.04541837e-05     3.27478422e-05 
   -9.12287380e-05     3.14731398e-05     2.24897410e-05 
   -8.42127098e-05     3.47892090e-05     1.61202103e-05 
   -7.79202532e-05     3.53917473e-05     3.78195110e-06 
   -7.79205316e-05     3.53883847e-05    -3.78482757e-06 
   -8.42141223e-05     3.47925376e-05    -1.61258400e-05 
   -9.12294469e-05     3.14700988e-05    -2.24912027e-05 
   -1.04060559e-04     3.04539863e-05    -3.27512614e-05 
   -1.08086871e-04     2.64219084e-05    -3.27519503e-05 
   -9.94113680e-05     2.28955421e-05     3.85810362e-05 
   -9.34231114e-05     2.18416396e-05     3.28223663e-05 
   -8.19685978e-05     2.87168564e-05     2.76148429e-05 
   -7.26305236e-05     2.86435319e-05     1.83349852e-05 
   -6.61749070e-05     3.04355924e-05     5.19881902e-06 
   -6.61747180e-05     3.04356161e-05    -5.20382131e-06 
   -7.26327375e-05     2.86426328e-05    -1.83395043e-05 
   -8.19738797e-05     2.87157345e-05    -2.76184410e-05 
   -9.34287451e-05     2.18374300e-05    -3.28292953e-05 
   -9.94157826e-05     2.28993436e-05    -3.85862288e-05 
   -9.15466477e-05     1.55480817e-05     3.92474534e-05 
   -8.34698459e-05     1.52076231e-05     3.46125551e-05 
   -7.20995964e-05     1.67290633e-05     2.87302970e-05 
   -6.22622524e-05     2.03469518e-05     2.00474604e-05 
   -5.53362386e-05     2.14289029e-05     7.07909867e-06 
   -5.53372089e-05     2.14259010e-05    -7.08496982e-06 
   -6.22661226e-05     2.03499449e-05    -2.00538142e-05 
   -7.21001555e-05     1.67264481e-05    -2.87376276e-05 
   -8.34703677e-05     1.52096151e-05    -3.46179248e-05 
   -9.15502979e-05     1.55480060e-05    -3.92548979e-05 
   -8.51580384e-05     6.27746145e-06     3.91945301e-05 
   -7.76543410e-05     5.33277180e-06     3.64305370e-05 
   -6.58584426e-05     6.81971549e-06     3.03653102e-05 
   -5.51335263e-05     6.93630532e-06     2.06570636e-05 
   -4.91843201e-05     8.47922725e-06     7.65993690e-06 
   -4.91853252e-05     8.48205910e-06    -7.66770908e-06 
   -5.51338432e-05     6.93377874e-06    -2.06627007e-05 
   -6.58581038e-05     6.82185379e-06    -3.03722675e-05 
   -7.76562448e-05     5.33165534e-06    -3.64373621e-05 
   -8.51600128e-05     6.28044726e-06    -3.92015215e-05 
   -8.51580384e-05    -6.27746145e-06     3.91945301e-05 
   -7.76543410e-05    -5.33277180e-06     3.64305370e-05 
   -6.58584426e-05    -6.81971549e-06     3.03653102e-05 
   -5.51335263e-05    -6.93630532e-06     2.06570636e-05 
   -4.91843201e-05    -8.47922725e-06     7.65993690e-06 
   -4.91853252e-05    -8.48205910e-06    -7.66770908e-06 
   -5.51338432e-05    -6.93377874e-06    -2.06627007e-05 
   -6.58581038e-05    -6.82185379e-06    -3.03722675e-05 
   -7.76562448e-05    -5.33165534e-06    -3.64373621e-05 
   -8.51600128e-05    -6.28044726e-06    -3.92015215e-05 
   -9.15466477e-05    -1.55480817e-05     3.92474534e-05 
   -8.34698459e-05    -1.52076231e-05     3.46125551e-05 
   -7.20995964e-05    -1.67290633e-05     2.87302970e-05 
   -6.22622524e-05    -2.03469518e-05     2.00474604e-05 
   -5.53362386e-05    -2.14289029e-05     7.07909867e-06 
   -5.53372089e-05    -2.14259010e-05    -7.08496982e-06 
   -6.22661226e-05    -2.03499449e-05    -2.00538142e-05 
   -7.21001555e-05    -1.67264481e-05    -2.87376276e-05 
   -8.34703677e-05    -1.52096151e-05    -3.46179248e-05 
   -9.15502979e-05    -1.55480060e-05    -3.92548979e-05 
   -9.94113680e-05    -2.28955421e-05     3.85810362e-05 
   -9.34231114e-05    -2.18416396e-05     3.28223663e-05 
   -8.19685978e-05    -2.87168564e-05     2.76148429e-05 
   -7.26305236e-05    -2.86435319e-05     1.83349852e-05 
   -6.61749070e-05    -3.04355924e-05     5.19881902e-06 
   -6.61747180e-05    -3.04356161e-05    -5.20382131e-06 
   -7.26327375e-05    -2.86426328e-05    -1.83395043e-05 
   -8.19738797e-05    -2.87157345e-05    -2.76184410e-05 
   -9.34287451e-05    -2.18374300e-05    -3.28292953e-05 
   -9.94157826e-05    -2.28993436e-05    -3.85862288e-05 
   -1.08086291e-04    -2.64138468e-05     3.27466815e-05 
   -1.04047695e-04    -3.04541837e-05     3.27478422e-05 
   -9.12287380e-05    -3.14731398e-05     2.24897410e-05 
   -8.42127098e-05    -3.47892090e-05     1.61202103e-05 
   -7.79202532e-05    -3.53917473e-05     3.78195110e-06 
   -7.79205316e-05    -3.53883847e-05    -3.78482757e-06 
   -8.42141223e-05    -3.47925376e-05    -1.61258400e-05 
   -9.12294469e-05    -3.14700988e-05    -2.24912027e-05 
   -1.04060559e-04    -3.04539863e-05    -3.27512614e-05 
   -1.08086871e-04    -2.64219084e-05    -3.27519503e-05 
   -1.15172432e-04    -3.34555172e-05     3.60606462e-05 
   -1.14146789e-04    -3.21593062e-05     2.84701071e-05 
   -9.99294253e-05    -3.77334264e-05     2.17588995e-05 
   -9.23097834e-05    -3.84698518e-05     1.80548621e-05 
   -8.58566181e-05    -3.83760736e-05     3.03636961e-06 
   -8.58573614e-05    -3.83753061e-05    -3.04496951e-06 
   -9.23122477e-05    -3.84695477e-05    -1.80650269e-05 
   -9.99309458e-05    -3.77312868e-05    -2.17655081e-05 
   -1.14153166e-04    -3.21575762e-05    -2.84830858e-05 
   -1.15156526e-04    -3.34550197e-05    -3.60678910e-05 
   -7.18676597e-05     3.44529817e-05     3.68137220e-05 
   -6.35449698e-05     3.19972472e-05     2.34541842e-05 
   -6.00823473e-05     3.69722991e-05     1.67799980e-05 
   -5.03876602e-05     4.02773298e-05     9.75859473e-06 
   -4.42497745e-05     4.05996634e-05     2.52274573e-06 
   -4.42530971e-05     4.05992736e-05    -2.53044251e-06 
   -5.03860267e-05     4.02763668e-05    -9.76580040e-06 
   -6.00860775e-05     3.69713179e-05    -1.67902846e-05 
   -6.35444876e-05     3.19965769e-05    -2.34600326e-05 
   -7.18596271e-05     3.44560229e-05    -3.68247566e-05 
   -6.70250344e-05     2.07333447e-05     3.21579031e-05 
   -6.08399101e-05     2.82694496e-05     2.84490938e-05 
   -5.62182811e-05     2.82361858e-05     1.74041149e-05 
   -4.74566443e-05     3.23875408e-05     7.90863687e-06 
   -4.06762503e-05     3.47707646e-05     3.14952383e-06 
   -4.06782017e-05     3.47682024e-05    -3.15382233e-06 
   -4.74574361e-05     3.23886982e-05    -7.90908361e-06 
   -5.62231924e-05     2.82330187e-05    -1.74089703e-05 
   -6.08460511e-05     2.82680711e-05    -2.84466334e-05 
   -6.70322184e-05     2.07306850e-05    -3.21629478e-05 
   -5.84192194e-05     1.53568295e-05     3.75664118e-05 
   -5.40995902e-05     1.65023632e-05     2.80290126e-05 
   -4.83787541e-05     2.27409360e-05     2.28845812e-05 
   -3.98603119e-05     2.34067536e-05     1.09506270e-05 
   -3.28236380e-05     2.54073541e-05     3.91847913e-06 
   -3.28262725e-05     2.54071976e-05    -3.92278810e-06 
   -3.98607575e-05     2.34060962e-05    -1.09523275e-05 
   -4.83869454e-05     2.27414748e-05    -2.28903461e-05 
   -5.41021147e-05     1.65019463e-05    -2.80307373e-05 
   -5.84244213e-05     1.53611799e-05    -3.75718847e-05 
   -5.07304811e-05     9.28676270e-06     4.10085353e-05 
   -4.66211121e-05     9.15874213e-06     3.32709414e-05 
   -4.04033505e-05     1.04284847e-05     2.30312948e-05 
   -3.23608241e-05     1.50383391e-05     1.47993553e-05 
   -2.43620371e-05     1.60616935e-05     5.05716013e-06 
   -2.43635168e-05     1.60598230e-05    -5.06274645e-06 
   -3.23633553e-05     1.50378432e-05    -1.48035643e-05 
   -4.04062227e-05     1.04239266e-05    -2.30375217e-05 
   -4.66233036e-05     9.15728691e-06    -3.32742509e-05 
   -5.07342399e-05     9.28334257e-06    -4.10140689e-05 
   -4.31479610e-05     4.34689492e-06     4.13890417e-05 
   -4.02580264e-05     3.28539731e-06     3.60560625e-05 
   -3.25058064e-05     4.11383376e-06     2.49969630e-05 