# vtk DataFile Version 2.0 
generated by Lattice Boltzmann Method time =   7.50555350e-01
ASCII 
DATASET UNSTRUCTURED_GRID

POINTS   1000 FLOAT 
  0.00000000e+00   0.00000000e+00   0.00000000e+00 
  0.00000000e+00   0.00000000e+00   1.00000000e-01 
  0.00000000e+00   0.00000000e+00   2.00000000e-01 
  0.00000000e+00   0.00000000e+00   3.00000000e-01 
  0.00000000e+00   0.00000000e+00   4.00000000e-01 
  0.00000000e+00   0.00000000e+00   5.00000000e-01 
  0.00000000e+00   0.00000000e+00   6.00000000e-01 
  0.00000000e+00   0.00000000e+00   7.00000000e-01 
  0.00000000e+00   0.00000000e+00   8.00000000e-01 
  0.00000000e+00   0.00000000e+00   9.00000000e-01 
  0.00000000e+00   1.00000000e-01   0.00000000e+00 
  0.00000000e+00   1.00000000e-01   1.00000000e-01 
  0.00000000e+00   1.00000000e-01   2.00000000e-01 
  0.00000000e+00   1.00000000e-01   3.00000000e-01 
  0.00000000e+00   1.00000000e-01   4.00000000e-01 
  0.00000000e+00   1.00000000e-01   5.00000000e-01 
  0.00000000e+00   1.00000000e-01   6.00000000e-01 
  0.00000000e+00   1.00000000e-01   7.00000000e-01 
  0.00000000e+00   1.00000000e-01   8.00000000e-01 
  0.00000000e+00   1.00000000e-01   9.00000000e-01 
  0.00000000e+00   2.00000000e-01   0.00000000e+00 
  0.00000000e+00   2.00000000e-01   1.00000000e-01 
  0.00000000e+00   2.00000000e-01   2.00000000e-01 
  0.00000000e+00   2.00000000e-01   3.00000000e-01 
  0.00000000e+00   2.00000000e-01   4.00000000e-01 
  0.00000000e+00   2.00000000e-01   5.00000000e-01 
  0.00000000e+00   2.00000000e-01   6.00000000e-01 
  0.00000000e+00   2.00000000e-01   7.00000000e-01 
  0.00000000e+00   2.00000000e-01   8.00000000e-01 
  0.00000000e+00   2.00000000e-01   9.00000000e-01 
  0.00000000e+00   3.00000000e-01   0.00000000e+00 
  0.00000000e+00   3.00000000e-01   1.00000000e-01 
  0.00000000e+00   3.00000000e-01   2.00000000e-01 
  0.00000000e+00   3.00000000e-01   3.00000000e-01 
  0.00000000e+00   3.00000000e-01   4.00000000e-01 
  0.00000000e+00   3.00000000e-01   5.00000000e-01 
  0.00000000e+00   3.00000000e-01   6.00000000e-01 
  0.00000000e+00   3.00000000e-01   7.00000000e-01 
  0.00000000e+00   3.00000000e-01   8.00000000e-01 
  0.00000000e+00   3.00000000e-01   9.00000000e-01 
  0.00000000e+00   4.00000000e-01   0.00000000e+00 
  0.00000000e+00   4.00000000e-01   1.00000000e-01 
  0.00000000e+00   4.00000000e-01   2.00000000e-01 
  0.00000000e+00   4.00000000e-01   3.00000000e-01 
  0.00000000e+00   4.00000000e-01   4.00000000e-01 
  0.00000000e+00   4.00000000e-01   5.00000000e-01 
  0.00000000e+00   4.00000000e-01   6.00000000e-01 
  0.00000000e+00   4.00000000e-01   7.00000000e-01 
  0.00000000e+00   4.00000000e-01   8.00000000e-01 
  0.00000000e+00   4.00000000e-01   9.00000000e-01 
  0.00000000e+00   5.00000000e-01   0.00000000e+00 
  0.00000000e+00   5.00000000e-01   1.00000000e-01 
  0.00000000e+00   5.00000000e-01   2.00000000e-01 
  0.00000000e+00   5.00000000e-01   3.00000000e-01 
  0.00000000e+00   5.00000000e-01   4.00000000e-01 
  0.00000000e+00   5.00000000e-01   5.00000000e-01 
  0.00000000e+00   5.00000000e-01   6.00000000e-01 
  0.00000000e+00   5.00000000e-01   7.00000000e-01 
  0.00000000e+00   5.00000000e-01   8.00000000e-01 
  0.00000000e+00   5.00000000e-01   9.00000000e-01 
  0.00000000e+00   6.00000000e-01   0.00000000e+00 
  0.00000000e+00   6.00000000e-01   1.00000000e-01 
  0.00000000e+00   6.00000000e-01   2.00000000e-01 
  0.00000000e+00   6.00000000e-01   3.00000000e-01 
  0.00000000e+00   6.00000000e-01   4.00000000e-01 
  0.00000000e+00   6.00000000e-01   5.00000000e-01 
  0.00000000e+00   6.00000000e-01   6.00000000e-01 
  0.00000000e+00   6.00000000e-01   7.00000000e-01 
  0.00000000e+00   6.00000000e-01   8.00000000e-01 
  0.00000000e+00   6.00000000e-01   9.00000000e-01 
  0.00000000e+00   7.00000000e-01   0.00000000e+00 
  0.00000000e+00   7.00000000e-01   1.00000000e-01 
  0.00000000e+00   7.00000000e-01   2.00000000e-01 
  0.00000000e+00   7.00000000e-01   3.00000000e-01 
  0.00000000e+00   7.00000000e-01   4.00000000e-01 
  0.00000000e+00   7.00000000e-01   5.00000000e-01 
  0.00000000e+00   7.00000000e-01   6.00000000e-01 
  0.00000000e+00   7.00000000e-01   7.00000000e-01 
  0.00000000e+00   7.00000000e-01   8.00000000e-01 
  0.00000000e+00   7.00000000e-01   9.00000000e-01 
  0.00000000e+00   8.00000000e-01   0.00000000e+00 
  0.00000000e+00   8.00000000e-01   1.00000000e-01 
  0.00000000e+00   8.00000000e-01   2.00000000e-01 
  0.00000000e+00   8.00000000e-01   3.00000000e-01 
  0.00000000e+00   8.00000000e-01   4.00000000e-01 
  0.00000000e+00   8.00000000e-01   5.00000000e-01 
  0.00000000e+00   8.00000000e-01   6.00000000e-01 
  0.00000000e+00   8.00000000e-01   7.00000000e-01 
  0.00000000e+00   8.00000000e-01   8.00000000e-01 
  0.00000000e+00   8.00000000e-01   9.00000000e-01 
  0.00000000e+00   9.00000000e-01   0.00000000e+00 
  0.00000000e+00   9.00000000e-01   1.00000000e-01 
  0.00000000e+00   9.00000000e-01   2.00000000e-01 
  0.00000000e+00   9.00000000e-01   3.00000000e-01 
  0.00000000e+00   9.00000000e-01   4.00000000e-01 
  0.00000000e+00   9.00000000e-01   5.00000000e-01 
  0.00000000e+00   9.00000000e-01   6.00000000e-01 
  0.00000000e+00   9.00000000e-01   7.00000000e-01 
  0.00000000e+00   9.00000000e-01   8.00000000e-01 
  0.00000000e+00   9.00000000e-01   9.00000000e-01 
  1.00000000e-01   0.00000000e+00   0.00000000e+00 
  1.00000000e-01   0.00000000e+00   1.00000000e-01 
  1.00000000e-01   0.00000000e+00   2.00000000e-01 
  1.00000000e-01   0.00000000e+00   3.00000000e-01 
  1.00000000e-01   0.00000000e+00   4.00000000e-01 
  1.00000000e-01   0.00000000e+00   5.00000000e-01 
  1.00000000e-01   0.00000000e+00   6.00000000e-01 
  1.00000000e-01   0.00000000e+00   7.00000000e-01 
  1.00000000e-01   0.00000000e+00   8.00000000e-01 
  1.00000000e-01   0.00000000e+00   9.00000000e-01 
  1.00000000e-01   1.00000000e-01   0.00000000e+00 
  1.00000000e-01   1.00000000e-01   1.00000000e-01 
  1.00000000e-01   1.00000000e-01   2.00000000e-01 
  1.00000000e-01   1.00000000e-01   3.00000000e-01 
  1.00000000e-01   1.00000000e-01   4.00000000e-01 
  1.00000000e-01   1.00000000e-01   5.00000000e-01 
  1.00000000e-01   1.00000000e-01   6.00000000e-01 
  1.00000000e-01   1.00000000e-01   7.00000000e-01 
  1.00000000e-01   1.00000000e-01   8.00000000e-01 
  1.00000000e-01   1.00000000e-01   9.00000000e-01 
  1.00000000e-01   2.00000000e-01   0.00000000e+00 
  1.00000000e-01   2.00000000e-01   1.00000000e-01 
  1.00000000e-01   2.00000000e-01   2.00000000e-01 
  1.00000000e-01   2.00000000e-01   3.00000000e-01 
  1.00000000e-01   2.00000000e-01   4.00000000e-01 
  1.00000000e-01   2.00000000e-01   5.00000000e-01 
  1.00000000e-01   2.00000000e-01   6.00000000e-01 
  1.00000000e-01   2.00000000e-01   7.00000000e-01 
  1.00000000e-01   2.00000000e-01   8.00000000e-01 
  1.00000000e-01   2.00000000e-01   9.00000000e-01 
  1.00000000e-01   3.00000000e-01   0.00000000e+00 
  1.00000000e-01   3.00000000e-01   1.00000000e-01 
  1.00000000e-01   3.00000000e-01   2.00000000e-01 
  1.00000000e-01   3.00000000e-01   3.00000000e-01 
  1.00000000e-01   3.00000000e-01   4.00000000e-01 
  1.00000000e-01   3.00000000e-01   5.00000000e-01 
  1.00000000e-01   3.00000000e-01   6.00000000e-01 
  1.00000000e-01   3.00000000e-01   7.00000000e-01 
  1.00000000e-01   3.00000000e-01   8.00000000e-01 
  1.00000000e-01   3.00000000e-01   9.00000000e-01 
  1.00000000e-01   4.00000000e-01   0.00000000e+00 
  1.00000000e-01   4.00000000e-01   1.00000000e-01 
  1.00000000e-01   4.00000000e-01   2.00000000e-01 
  1.00000000e-01   4.00000000e-01   3.00000000e-01 
  1.00000000e-01   4.00000000e-01   4.00000000e-01 
  1.00000000e-01   4.00000000e-01   5.00000000e-01 
  1.00000000e-01   4.00000000e-01   6.00000000e-01 
  1.00000000e-01   4.00000000e-01   7.00000000e-01 
  1.00000000e-01   4.00000000e-01   8.00000000e-01 
  1.00000000e-01   4.00000000e-01   9.00000000e-01 
  1.00000000e-01   5.00000000e-01   0.00000000e+00 
  1.00000000e-01   5.00000000e-01   1.00000000e-01 
  1.00000000e-01   5.00000000e-01   2.00000000e-01 
  1.00000000e-01   5.00000000e-01   3.00000000e-01 
  1.00000000e-01   5.00000000e-01   4.00000000e-01 
  1.00000000e-01   5.00000000e-01   5.00000000e-01 
  1.00000000e-01   5.00000000e-01   6.00000000e-01 
  1.00000000e-01   5.00000000e-01   7.00000000e-01 
  1.00000000e-01   5.00000000e-01   8.00000000e-01 
  1.00000000e-01   5.00000000e-01   9.00000000e-01 
  1.00000000e-01   6.00000000e-01   0.00000000e+00 
  1.00000000e-01   6.00000000e-01   1.00000000e-01 
  1.00000000e-01   6.00000000e-01   2.00000000e-01 
  1.00000000e-01   6.00000000e-01   3.00000000e-01 
  1.00000000e-01   6.00000000e-01   4.00000000e-01 
  1.00000000e-01   6.00000000e-01   5.00000000e-01 
  1.00000000e-01   6.00000000e-01   6.00000000e-01 
  1.00000000e-01   6.00000000e-01   7.00000000e-01 
  1.00000000e-01   6.00000000e-01   8.00000000e-01 
  1.00000000e-01   6.00000000e-01   9.00000000e-01 
  1.00000000e-01   7.00000000e-01   0.00000000e+00 
  1.00000000e-01   7.00000000e-01   1.00000000e-01 
  1.00000000e-01   7.00000000e-01   2.00000000e-01 
  1.00000000e-01   7.00000000e-01   3.00000000e-01 
  1.00000000e-01   7.00000000e-01   4.00000000e-01 
  1.00000000e-01   7.00000000e-01   5.00000000e-01 
  1.00000000e-01   7.00000000e-01   6.00000000e-01 
  1.00000000e-01   7.00000000e-01   7.00000000e-01 
  1.00000000e-01   7.00000000e-01   8.00000000e-01 
  1.00000000e-01   7.00000000e-01   9.00000000e-01 
  1.00000000e-01   8.00000000e-01   0.00000000e+00 
  1.00000000e-01   8.00000000e-01   1.00000000e-01 
  1.00000000e-01   8.00000000e-01   2.00000000e-01 
  1.00000000e-01   8.00000000e-01   3.00000000e-01 
  1.00000000e-01   8.00000000e-01   4.00000000e-01 
  1.00000000e-01   8.00000000e-01   5.00000000e-01 
  1.00000000e-01   8.00000000e-01   6.00000000e-01 
  1.00000000e-01   8.00000000e-01   7.00000000e-01 
  1.00000000e-01   8.00000000e-01   8.00000000e-01 
[...]
POINT_DATA   1000
FIELD solution 1
u 3   1000 DOUBLE
   -2.27378644e-04     9.38029318e-05     8.84427350e-05 
   -2.40772421e-04     8.83029796e-05     7.55903152e-05 
   -2.50534341e-04     8.84838196e-05     5.42287760e-05 
   -2.54506496e-04     8.69168999e-05     3.21440085e-05 
   -2.53570472e-04     8.55296514e-05     9.68669014e-06 
   -2.53571015e-04     8.55297768e-05    -9.68984327e-06 
   -2.54507177e-04     8.69152849e-05    -3.21503231e-05 
   -2.50535800e-04     8.84855963e-05    -5.42369456e-05 
   -2.40776525e-04     8.82992713e-05    -7.56035533e-05 
   -2.27267654e-04     9.37538787e-05    -8.84358502e-05 
   -2.37365730e-04     7.61783901e-05     8.73535885e-05 
   -2.47057615e-04     7.40244351e-05     7.32913383e-05 
   -2.57853575e-04     7.23999593e-05     5.47142562e-05 
   -2.62644037e-04     7.16537032e-05     3.16672434e-05 
   -2.62010920e-04     7.12076648e-05     1.01404939e-05 
   -2.62011222e-04     7.12069367e-05    -1.01438727e-05 
   -2.62644841e-04     7.16543602e-05    -3.16735618e-05 
   -2.57854979e-04     7.23984641e-05    -5.47267695e-05 
   -2.47057802e-04     7.40633891e-05    -7.33348433e-05 
   -2.37370676e-04     7.61898476e-05    -8.73560931e-05 
   -2.48201920e-04     5.43797383e-05     8.76522745e-05 
   -2.57456953e-04     5.48409743e-05     7.19346871e-05 
   -2.68477443e-04     5.53610328e-05     5.50230775e-05 
   -2.73716221e-04     5.33284396e-05     3.18639497e-05 
   -2.73078562e-04     5.34386429e-05     9.87900594e-06 
   -2.73078928e-04     5.34386530e-05    -9.88207791e-06 
   -2.73716749e-04     5.33279565e-05    -3.18705432e-05 
   -2.68477184e-04     5.53959974e-05    -5.50619860e-05 
   -2.57459283e-04     5.48502557e-05    -7.19397943e-05 
   -2.48204711e-04     5.43869182e-05    -8.76601435e-05 
   -2.52985892e-04     3.13788354e-05     8.62914080e-05 
   -2.62221824e-04     3.16578026e-05     7.10031437e-05 
   -2.73493909e-04     3.17199335e-05     5.29978917e-05 
   -2.79042340e-04     3.18513272e-05     3.16631996e-05 
   -2.78511928e-04     3.11711098e-05     9.97013491e-06 
   -2.78512218e-04     3.11704927e-05    -9.97242879e-06 
   -2.79042378e-04     3.18698638e-05    -3.16843864e-05 
   -2.73494961e-04     3.17238849e-05    -5.30017536e-05 
   -2.62223890e-04     3.16615193e-05    -7.10093889e-05 
   -2.52988320e-04     3.13828455e-05    -8.62965324e-05 
   -2.52113990e-04     1.01176337e-05     8.49303409e-05 
   -2.61507621e-04     1.02521361e-05     7.08223175e-05 
   -2.72790575e-04     1.00639292e-05     5.30742678e-05 
   -2.78385243e-04     1.00890362e-05     3.07992234e-05 
   -2.77710600e-04     1.01999937e-05     9.87907253e-06 
   -2.77710659e-04     1.02090495e-05    -9.89009980e-06 
   -2.78385914e-04     1.00892064e-05    -3.08010761e-05 
   -2.72791900e-04     1.00640398e-05    -5.30780807e-05 
   -2.61509659e-04     1.02528186e-05    -7.08280198e-05 
   -2.52116403e-04     1.01180349e-05    -8.49361185e-05 
   -2.52113990e-04    -1.01176337e-05     8.49303409e-05 
   -2.61507621e-04    -1.02521361e-05     7.08223175e-05 
   -2.72790575e-04    -1.00639292e-05     5.30742678e-05 
   -2.78385243e-04    -1.00890362e-05     3.07992234e-05 
   -2.77710600e-04    -1.01999937e-05     9.87907253e-06 
   -2.77710659e-04    -1.02090495e-05    -9.89009980e-06 
   -2.78385914e-04    -1.00892064e-05    -3.08010761e-05 
   -2.72791900e-04    -1.00640398e-05    -5.30780807e-05 
   -2.61509659e-04    -1.02528186e-05    -7.08280198e-05 
   -2.52116403e-04    -1.01180349e-05    -8.49361185e-05 
   -2.52985892e-04    -3.13788354e-05     8.62914080e-05 
   -2.62221824e-04    -3.16578026e-05     7.10031437e-05 
   -2.73493909e-04    -3.17199335e-05     5.29978917e-05 
   -2.79042340e-04    -3.18513272e-05     3.16631996e-05 
   -2.78511928e-04    -3.11711098e-05     9.97013491e-06 
   -2.78512218e-04    -3.11704927e-05    -9.97242879e-06 
   -2.79042378e-04    -3.18698638e-05    -3.16843864e-05 
   -2.73494961e-04    -3.17238849e-05    -5.30017536e-05 
   -2.62223890e-04    -3.16615193e-05    -7.10093889e-05 
   -2.52988320e-04    -3.13828455e-05    -8.62965324e-05 
   -2.48201920e-04    -5.43797383e-05     8.76522745e-05 
   -2.57456953e-04    -5.48409743e-05     7.19346871e-05 
   -2.68477443e-04    -5.53610328e-05     5.50230775e-05 
   -2.73716221e-04    -5.33284396e-05     3.18639497e-05 
   -2.73078562e-04    -5.34386429e-05     9.87900594e-06 
   -2.73078928e-04    -5.34386530e-05    -9.88207791e-06 
   -2.73716749e-04    -5.33279565e-05    -3.18705432e-05 
   -2.68477184e-04    -5.53959974e-05    -5.50619860e-05 
   -2.57459283e-04    -5.48502557e-05    -7.19397943e-05 
   -2.48204711e-04    -5.43869182e-05    -8.76601435e-05 
   -2.37365730e-04    -7.61783901e-05     8.73535885e-05 
   -2.47057615e-04    -7.40244351e-05     7.32913383e-05 
   -2.57853575e-04    -7.23999593e-05     5.47142562e-05 
   -2.62644037e-04    -7.16537032e-05     3.16672434e-05 
   -2.62010920e-04    -7.12076648e-05     1.01404939e-05 
   -2.62011222e-04    -7.12069367e-05    -1.01438727e-05 
   -2.62644841e-04    -7.16543602e-05    -3.16735618e-05 
   -2.57854979e-04    -7.23984641e-05    -5.47267695e-05 
   -2.47057802e-04    -7.40633891e-05    -7.33348433e-05 
   -2.37370676e-04    -7.61898476e-05    -8.73560931e-05 
   -2.27378644e-04    -9.38029318e-05     8.84427350e-05 
   -2.40772421e-04    -8.83029796e-05     7.55903152e-05 
   -2.50534341e-04    -8.84838196e-05     5.42287760e-05 
   -2.54506496e-04    -8.69168999e-05     3.21440085e-05 
   -2.53570472e-04    -8.55296514e-05     9.68669014e-06 
   -2.53571015e-04    -8.55297768e-05    -9.68984327e-06 
   -2.54507177e-04    -8.69152849e-05    -3.21503231e-05 
   -2.50535800e-04    -8.84855963e-05    -5.42369456e-05 
   -2.40776525e-04    -8.82992713e-05    -7.56035533e-05 
   -2.27267654e-04    -9.37538787e-05    -8.84358502e-05 
   -1.94470005e-04     9.45675921e-05     9.36262448e-05 
   -2.02089128e-04     9.20159409e-05     8.60828716e-05 
   -2.09930610e-04     9.20582400e-05     6.46279458e-05 
   -2.13031828e-04     9.13558745e-05     3.74246036e-05 
   -2.13989225e-04     9.09219699e-05     1.18405337e-05 
   -2.13989954e-04     9.09218746e-05    -1.18398121e-05 
   -2.13031573e-04     9.13552327e-05    -3.74247917e-05 
   -2.09933789e-04     9.20596403e-05    -6.46283905e-05 
   -2.02087898e-04     9.20131086e-05    -8.60845006e-05 
   -1.94434806e-04     9.45583373e-05    -9.36192646e-05 
   -2.00277184e-04     8.61018271e-05     9.17120030e-05 
   -2.06489019e-04     8.37109182e-05     8.34604242e-05 
   -2.14012725e-04     8.35535855e-05     6.50991476e-05 
   -2.18329649e-04     8.32277317e-05     3.75420677e-05 
   -2.19766150e-04     8.27855849e-05     1.25786211e-05 
   -2.19766645e-04     8.27850294e-05    -1.25780390e-05 
   -2.18329779e-04     8.32281171e-05    -3.75419249e-05 
   -2.14010586e-04     8.35522258e-05    -6.51030021e-05 
   -2.06503289e-04     8.37045616e-05    -8.34559487e-05 
   -2.00278318e-04     8.61016826e-05    -9.17125576e-05 
   -2.08108927e-04     6.47673838e-05     9.18421068e-05 
   -2.13421276e-04     6.48459045e-05     8.38776666e-05 
   -2.22676614e-04     6.47515424e-05     6.47503805e-05 
   -2.26769771e-04     6.39618516e-05     3.80698615e-05 
   -2.28395926e-04     6.40656873e-05     1.21321771e-05 
   -2.28396221e-04     6.40656594e-05    -1.21317726e-05 
   -2.26768390e-04     6.39612997e-05    -3.80719576e-05 
   -2.22679135e-04     6.47556059e-05    -6.47560774e-05 
   -2.13419131e-04     6.48485958e-05    -8.38802615e-05 
   -2.08112440e-04     6.47684205e-05    -9.18472527e-05 
   -2.12099289e-04     3.73302819e-05     9.11827089e-05 
   -2.17952592e-04     3.75720541e-05     8.30714416e-05 
   -2.26621165e-04     3.78223469e-05     6.41380328e-05 
   -2.31475486e-04     3.76282823e-05     3.76589590e-05 
   -2.32476201e-04     3.72017254e-05     1.24769356e-05 
   -2.32475988e-04     3.72014159e-05    -1.24767512e-05 
   -2.31475059e-04     3.76312537e-05    -3.76622187e-05 
   -2.26619895e-04     3.78240834e-05    -6.41395358e-05 
   -2.17953597e-04     3.75723846e-05    -8.30749954e-05 
   -2.12101096e-04     3.73312472e-05    -9.11860840e-05 
   -2.12998606e-04     1.23239766e-05     9.07600334e-05 
   -2.19210134e-04     1.25308786e-05     8.29438253e-05 
   -2.28117608e-04     1.22278400e-05     6.40607558e-05 
   -2.32344071e-04     1.24888785e-05     3.71343659e-05 
   -2.33394681e-04     1.21413873e-05     1.20217082e-05 
   -2.33395102e-04     1.21428041e-05    -1.20229794e-05 
   -2.32344106e-04     1.24890910e-05    -3.71343420e-05 
   -2.28118067e-04     1.22277201e-05    -6.40622682e-05 
   -2.19211096e-04     1.25309666e-05    -8.29471297e-05 
   -2.13000472e-04     1.23242140e-05    -9.07637534e-05 
   -2.12998606e-04    -1.23239766e-05     9.07600334e-05 
   -2.19210134e-04    -1.25308786e-05     8.29438253e-05 
   -2.28117608e-04    -1.22278400e-05     6.40607558e-05 
   -2.32344071e-04    -1.24888785e-05     3.71343659e-05 
   -2.33394681e-04    -1.21413873e-05     1.20217082e-05 
   -2.33395102e-04    -1.21428041e-05    -1.20229794e-05 
   -2.32344106e-04    -1.24890910e-05    -3.71343420e-05 
   -2.28118067e-04    -1.22277201e-05    -6.40622682e-05 
   -2.19211096e-04    -1.25309666e-05    -8.29471297e-05 
   -2.13000472e-04    -1.23242140e-05    -9.07637534e-05 
   -2.12099289e-04    -3.73302819e-05     9.11827089e-05 
   -2.17952592e-04    -3.75720541e-05     8.30714416e-05 
   -2.26621165e-04    -3.78223469e-05     6.41380328e-05 
   -2.31475486e-04    -3.76282823e-05     3.76589590e-05 
   -2.32476201e-04    -3.72017254e-05     1.24769356e-05 
   -2.32475988e-04    -3.72014159e-05    -1.24767512e-05 
   -2.31475059e-04    -3.76312537e-05    -3.76622187e-05 
   -2.26619895e-04    -3.78240834e-05    -6.41395358e-05 
   -2.17953597e-04    -3.75723846e-05    -8.30749954e-05 
   -2.12101096e-04    -3.73312472e-05    -9.11860840e-05 
   -2.08108927e-04    -6.47673838e-05     9.18421068e-05 
   -2.13421276e-04    -6.48459045e-05     8.38776666e-05 
   -2.22676614e-04    -6.47515424e-05     6.47503805e-05 
   -2.26769771e-04    -6.39618516e-05     3.80698615e-05 
   -2.28395926e-04    -6.40656873e-05     1.21321771e-05 
   -2.28396221e-04    -6.40656594e-05    -1.21317726e-05 
   -2.26768390e-04    -6.39612997e-05    -3.80719576e-05 
   -2.22679135e-04    -6.47556059e-05    -6.47560774e-05 
   -2.13419131e-04    -6.48485958e-05    -8.38802615e-05 
   -2.08112440e-04    -6.47684205e-05    -9.18472527e-05 
   -2.00277184e-04    -8.61018271e-05     9.17120030e-05 
   -2.06489019e-04    -8.37109182e-05     8.34604242e-05 
   -2.14012725e-04    -8.35535855e-05     6.50991476e-05 
   -2.18329649e-04    -8.32277317e-05     3.75420677e-05 
   -2.19766150e-04    -8.27855849e-05     1.25786211e-05 
   -2.19766645e-04    -8.27850294e-05    -1.25780390e-05 
   -2.18329779e-04    -8.32281171e-05    -3.75419249e-05 
   -2.14010586e-04    -8.35522258e-05    -6.51030021e-05 
   -2.06503289e-04    -8.37045616e-05    -8.34559487e-05 
   -2.00278318e-04    -8.61016826e-05    -9.17125576e-05 
   -1.94470005e-04    -9.45675921e-05     9.36262448e-05 
   -2.02089128e-04    -9.20159409e-05     8.60828716e-05 
   -2.09930610e-04    -9.20582400e-05     6.46279458e-05 
   -2.13031828e-04    -9.13558745e-05     3.74246036e-05 
   -2.13989225e-04    -9.09219699e-05     1.18405337e-05 
   -2.13989954e-04    -9.09218746e-05    -1.18398121e-05 
   -2.13031573e-04    -9.13552327e-05    -3.74247917e-05 
   -2.09933789e-04    -9.20596403e-05    -6.46283905e-05 
   -2.02087898e-04    -9.20131086e-05    -8.60845006e-05 
   -1.94434806e-04    -9.45583373e-05    -9.36192646e-05 
   -1.55134532e-04     1.11727657e-04     1.09994421e-04 
   -1.61558238e-04     1.09831914e-04     9.34971094e-05 
   -1.64601426e-04     1.09336398e-04     7.13391356e-05 
   -1.70316565e-04     1.09346789e-04     4.39465722e-05 
   -1.72143061e-04     1.09474729e-04     1.39764346e-05 
   -1.72143486e-04     1.09474556e-04    -1.39765218e-05 
   -1.70316805e-04     1.09346122e-04    -4.39475282e-05 
   -1.64599199e-04     1.09334817e-04    -7.13426670e-05 
   -1.61558372e-04     1.09830840e-04    -9.35002082e-05 
   -1.55119365e-04     1.11726495e-04    -1.09996231e-04 
   -1.60281096e-04     9.37293157e-05     1.09490305e-04 
   -1.64857232e-04     9.20732882e-05     9.23006953e-05 
   -1.68137603e-04     9.13197253e-05     7.16737490e-05 
   -1.74251763e-04     9.15384720e-05     4.40420606e-05 
   -1.76704879e-04     9.13970519e-05     1.48534566e-05 
   -1.76704933e-04     9.13967661e-05    -1.48529398e-05 
   -1.74250621e-04     9.15379675e-05    -4.40435432e-05 
   -1.68138121e-04     9.13185143e-05    -7.16733413e-05 
   -1.64866203e-04     9.20715170e-05    -9.23014128e-05 
   -1.60281644e-04     9.37314162e-05    -1.09492417e-04 
   -1.63542184e-04     7.13507627e-05     1.09346856e-04 
   -1.68206338e-04     7.11777951e-05     9.13442944e-05 
   -1.72305849e-04     7.10605714e-05     7.11604787e-05 
   -1.78438190e-04     7.09645564e-05     4.40757121e-05 
   -1.80653030e-04     7.10764628e-05     1.46668559e-05 
   -1.80652666e-04     7.10764640e-05    -1.46669961e-05 
   -1.78437925e-04     7.09642331e-05    -4.40759631e-05 
   -1.72307534e-04     7.10603140e-05    -7.11619989e-05 
   -1.68207042e-04     7.11763242e-05    -9.13459542e-05 
   -1.63541096e-04     7.13537778e-05    -1.09348541e-04 
   -1.69668914e-04     4.38155517e-05     1.09374168e-04 
   -1.74027285e-04     4.38161301e-05     9.15221697e-05 
   -1.78191701e-04     4.37890082e-05     7.10941687e-05 
   -1.84485230e-04     4.38810982e-05     4.39759973e-05 
   -1.86368797e-04     4.35865132e-05     1.47954982e-05 
   -1.86369047e-04     4.35859518e-05    -1.47954593e-05 
   -1.84484889e-04     4.38834722e-05    -4.39788873e-05 
   -1.78191204e-04     4.37891604e-05    -7.10959150e-05 
   -1.74025873e-04     4.38177361e-05    -9.15246100e-05 
   -1.69670128e-04     4.38168269e-05    -1.09376893e-04 
   -1.71626821e-04     1.41544255e-05     1.09507457e-04 
   -1.76437370e-04     1.48591507e-05     9.14690496e-05 
   -1.80369499e-04     1.47334825e-05     7.11647795e-05 
   -1.86264433e-04     1.47523003e-05     4.35436528e-05 
   -1.88256340e-04     1.45510144e-05     1.44892848e-05 
   -1.88256551e-04     1.45525724e-05    -1.44904810e-05 
   -1.86264328e-04     1.47517142e-05    -4.35439704e-05 
   -1.80368941e-04     1.47338264e-05    -7.11666193e-05 
   -1.76437643e-04     1.48592433e-05    -9.14719858e-05 
   -1.71628206e-04     1.41545775e-05    -1.09510481e-04 
   -1.71626821e-04    -1.41544255e-05     1.09507457e-04 
   -1.76437370e-04    -1.48591507e-05     9.14690496e-05 
   -1.80369499e-04    -1.47334825e-05     7.11647795e-05 
   -1.86264433e-04    -1.47523003e-05     4.35436528e-05 
   -1.88256340e-04    -1.45510144e-05     1.44892848e-05 
   -1.88256551e-04    -1.45525724e-05    -1.44904810e-05 
   -1.86264328e-04    -1.47517142e-05    -4.35439704e-05 
   -1.80368941e-04    -1.47338264e-05    -7.11666193e-05 
   -1.76437643e-04    -1.48592433e-05    -9.14719858e-05 
   -1.71628206e-04    -1.41545775e-05    -1.09510481e-04 
   -1.69668914e-04    -4.38155517e-05     1.09374168e-04 
   -1.74027285e-04    -4.38161301e-05     9.15221697e-05 
   -1.78191701e-04    -4.37890082e-05     7.10941687e-05 
   -1.84485230e-04    -4.38810982e-05     4.39759973e-05 
   -1.86368797e-04    -4.35865132e-05     1.47954982e-05 
   -1.86369047e-04    -4.35859518e-05    -1.47954593e-05 
   -1.84484889e-04    -4.38834722e-05    -4.39788873e-05 
   -1.78191204e-04    -4.37891604e-05    -7.10959150e-05 
   -1.74025873e-04    -4.38177361e-05    -9.15246100e-05 
   -1.69670128e-04    -4.38168269e-05    -1.09376893e-04 
   -1.63542184e-04    -7.13507627e-05     1.09346856e-04 
   -1.68206338e-04    -7.11777951e-05     9.13442944e-05 
   -1.72305849e-04    -7.10605714e-05     7.11604787e-05 
   -1.78438190e-04    -7.09645564e-05     4.40757121e-05 
   -1.80653030e-04    -7.10764628e-05     1.46668559e-05 
   -1.80652666e-04    -7.10764640e-05    -1.46669961e-05 
   -1.78437925e-04    -7.09642331e-05    -4.40759631e-05 
   -1.72307534e-04    -7.10603140e-05    -7.11619989e-05 
   -1.68207042e-04    -7.11763242e-05    -9.13459542e-05 
   -1.63541096e-04    -7.13537778e-05    -1.09348541e-04 
   -1.60281096e-04    -9.37293157e-05     1.09490305e-04 
   -1.64857232e-04    -9.20732882e-05     9.23006953e-05 
   -1.68137603e-04    -9.13197253e-05     7.16737490e-05 
   -1.74251763e-04    -9.15384720e-05     4.40420606e-05 
   -1.76704879e-04    -9.13970519e-05     1.48534566e-05 
   -1.76704933e-04    -9.13967661e-05    -1.48529398e-05 
   -1.74250621e-04    -9.15379675e-05    -4.40435432e-05 
   -1.68138121e-04    -9.13185143e-05    -7.16733413e-05 
   -1.64866203e-04    -9.20715170e-05    -9.23014128e-05 
   -1.60281644e-04    -9.37314162e-05    -1.09492417e-04 
   -1.55134532e-04    -1.11727657e-04     1.09994421e-04 
   -1.61558238e-04    -1.09831914e-04     9.34971094e-05 
   -1.64601426e-04    -1.09336398e-04     7.13391356e-05 
   -1.70316565e-04    -1.09346789e-04     4.39465722e-05 
   -1.72143061e-04    -1.09474729e-04     1.39764346e-05 
   -1.72143486e-04    -1.09474556e-04    -1.39765218e-05 
   -1.70316805e-04    -1.09346122e-04    -4.39475282e-05 
   -1.64599199e-04    -1.09334817e-04    -7.13426670e-05 
   -1.61558372e-04    -1.09830840e-04    -9.35002082e-05 
   -1.55119365e-04    -1.11726495e-04    -1.09996231e-04 
   -9.63651897e-05     1.20818984e-04     1.18968759e-04 
   -1.00448805e-04     1.18600779e-04     1.00805600e-04 
   -1.05630882e-04     1.18526413e-04     7.61903762e-05 
   -1.06989081e-04     1.18454566e-04     4.86275703e-05 
   -1.09743193e-04     1.18616985e-04     1.53593167e-05 
   -1.09743530e-04     1.18616760e-04    -1.53597288e-05 
   -1.06987572e-04     1.18453896e-04    -4.86296939e-05 
   -1.05630174e-04     1.18525359e-04    -7.61925642e-05 
   -1.00448096e-04     1.18599838e-04    -1.00807677e-04 
   -9.63577251e-05     1.20818821e-04    -1.18970988e-04 
   -1.00373404e-04     1.01049988e-04     1.18320166e-04 
   -1.04167381e-04     1.00070286e-04     1.00043088e-04 
   -1.08977028e-04     9.99167817e-05     7.60619279e-05 
   -1.11427254e-04     1.00189722e-04     4.81059533e-05 
   -1.13941869e-04     1.00467540e-04     1.59527583e-05 
   -1.13941708e-04     1.00467390e-04    -1.59529759e-05 
   -1.11427338e-04     1.00189078e-04    -4.81060206e-05 
   -1.08977278e-04     9.99158702e-05    -7.60626092e-05 
   -1.04170672e-04     1.00069088e-04    -1.00044101e-04 
   -1.00373901e-04     1.01050214e-04    -1.18321565e-04 
   -1.05447248e-04     7.54891185e-05     1.18416213e-04 
   -1.08882361e-04     7.56223357e-05     9.99426889e-05 
   -1.14657682e-04     7.64200018e-05     7.65758538e-05 
   -1.16995877e-04     7.59121577e-05     4.87110814e-05 
   -1.19668539e-04     7.62486596e-05     1.54948863e-05 
   -1.19668853e-04     7.62483270e-05    -1.54949480e-05 
   -1.16995905e-04     7.59118858e-05    -4.87112531e-05 
   -1.14659894e-04     7.64194535e-05    -7.65770115e-05 
   -1.08882805e-04     7.56217458e-05    -9.99443227e-05 
   -1.05447713e-04     7.54904084e-05    -1.18417584e-04 
   -1.06503134e-04     4.83056864e-05     1.18495054e-04 
   -1.11349569e-04     4.78137056e-05     1.00165908e-04 
   -1.16977310e-04     4.83695125e-05     7.59355660e-05 
   -1.19039729e-04     4.82282928e-05     4.83383097e-05 
   -1.21317802e-04     4.82105223e-05     1.57251621e-05 
   -1.21317856e-04     4.82104299e-05    -1.57249777e-05 
   -1.19040654e-04     4.82283364e-05    -4.83395732e-05 
   -1.16977060e-04     4.83691440e-05    -7.59372253e-05 
   -1.11349726e-04     4.78136402e-05    -1.00167893e-04 
   -1.06503166e-04     4.83074063e-05    -1.18496889e-04 
   -1.09449812e-04     1.52141397e-05     1.18674360e-04 
   -1.13795426e-04     1.58202049e-05     1.00537860e-04 
   -1.19548467e-04     1.53883842e-05     7.61995859e-05 