# vtk DataFile Version 2.0 
generated by Lattice Boltzmann Method time =   6.92820323e-01
ASCII 
DATASET UNSTRUCTURED_GRID

POINTS   1000 FLOAT 
  0.00000000e+00   0.00000000e+00   0.00000000e+00 
  0.00000000e+00   0.00000000e+00   1.00000000e-01 
  0.00000000e+00   0.00000000e+00   2.00000000e-01 
  0.00000000e+00   0.00000000e+00   3.00000000e-01 
  0.00000000e+00   0.00000000e+00   4.00000000e-01 
  0.00000000e+00   0.00000000e+00   5.00000000e-01 
  0.00000000e+00   0.00000000e+00   6.00000000e-01 
  0.00000000e+00   0.00000000e+00   7.00000000e-01 
  0.00000000e+00   0.00000000e+00   8.00000000e-01 
  0.00000000e+00   0.00000000e+00   9.00000000e-01 
  0.00000000e+00   1.00000000e-01   0.00000000e+00 
  0.00000000e+00   1.00000000e-01   1.00000000e-01 
  0.00000000e+00   1.00000000e-01   2.00000000e-01 
  0.00000000e+00   1.00000000e-01   3.00000000e-01 
  0.00000000e+00   1.00000000e-01   4.00000000e-01 
  0.00000000e+00   1.00000000e-01   5.00000000e-01 
  0.00000000e+00   1.00000000e-01   6.00000000e-01 
  0.00000000e+00   1.00000000e-01   7.00000000e-01 
  0.00000000e+00   1.00000000e-01   8.00000000e-01 
  0.00000000e+00   1.00000000e-01   9.00000000e-01 
  0.00000000e+00   2.00000000e-01   0.00000000e+00 
  0.00000000e+00   2.00000000e-01   1.00000000e-01 
  0.00000000e+00   2.00000000e-01   2.00000000e-01 
  0.00000000e+00   2.00000000e-01   3.00000000e-01 
  0.00000000e+00   2.00000000e-01   4.00000000e-01 
  0.00000000e+00   2.00000000e-01   5.00000000e-01 
  0.00000000e+00   2.00000000e-01   6.00000000e-01 
  0.00000000e+00   2.00000000e-01   7.00000000e-01 
  0.00000000e+00   2.00000000e-01   8.00000000e-01 
  0.00000000e+00   2.00000000e-01   9.00000000e-01 
  0.00000000e+00   3.00000000e-01   0.00000000e+00 
  0.00000000e+00   3.00000000e-01   1.00000000e-01 
  0.00000000e+00   3.00000000e-01   2.00000000e-01 
  0.00000000e+00   3.00000000e-01   3.00000000e-01 
  0.00000000e+00   3.00000000e-01   4.00000000e-01 
  0.00000000e+00   3.00000000e-01   5.00000000e-01 
  0.00000000e+00   3.00000000e-01   6.00000000e-01 
  0.00000000e+00   3.00000000e-01   7.00000000e-01 
  0.00000000e+00   3.00000000e-01   8.00000000e-01 
  0.00000000e+00   3.00000000e-01   9.00000000e-01 
  0.00000000e+00   4.00000000e-01   0.00000000e+00 
  0.00000000e+00   4.00000000e-01   1.00000000e-01 
  0.00000000e+00   4.00000000e-01   2.00000000e-01 
  0.00000000e+00   4.00000000e-01   3.00000000e-01 
  0.00000000e+00   4.00000000e-01   4.00000000e-01 
  0.00000000e+00   4.00000000e-01   5.00000000e-01 
  0.00000000e+00   4.00000000e-01   6.00000000e-01 
  0.00000000e+00   4.00000000e-01   7.00000000e-01 
  0.00000000e+00   4.00000000e-01   8.00000000e-01 
  0.00000000e+00   4.00000000e-01   9.00000000e-01 
  0.00000000e+00   5.00000000e-01   0.00000000e+00 
  0.00000000e+00   5.00000000e-01   1.00000000e-01 
  0.00000000e+00   5.00000000e-01   2.00000000e-01 
  0.00000000e+00   5.00000000e-01   3.00000000e-01 
  0.00000000e+00   5.00000000e-01   4.00000000e-01 
  0.00000000e+00   5.00000000e-01   5.00000000e-01 
  0.00000000e+00   5.00000000e-01   6.00000000e-01 
  0.00000000e+00   5.00000000e-01   7.00000000e-01 
  0.00000000e+00   5.00000000e-01   8.00000000e-01 
  0.00000000e+00   5.00000000e-01   9.00000000e-01 
  0.00000000e+00   6.00000000e-01   0.00000000e+00 
  0.00000000e+00   6.00000000e-01   1.00000000e-01 
  0.00000000e+00   6.00000000e-01   2.00000000e-01 
  0.00000000e+00   6.00000000e-01   3.00000000e-01 
  0.00000000e+00   6.00000000e-01   4.00000000e-01 
  0.00000000e+00   6.00000000e-01   5.00000000e-01 
  0.00000000e+00   6.00000000e-01   6.00000000e-01 
  0.00000000e+00   6.00000000e-01   7.00000000e-01 
  0.00000000e+00   6.00000000e-01   8.00000000e-01 
  0.00000000e+00   6.00000000e-01   9.00000000e-01 
  0.00000000e+00   7.00000000e-01   0.00000000e+00 
  0.00000000e+00   7.00000000e-01   1.00000000e-01 
  0.00000000e+00   7.00000000e-01   2.00000000e-01 
  0.00000000e+00   7.00000000e-01   3.00000000e-01 
  0.00000000e+00   7.00000000e-01   4.00000000e-01 
  0.00000000e+00   7.00000000e-01   5.00000000e-01 
  0.00000000e+00   7.00000000e-01   6.00000000e-01 
  0.00000000e+00   7.00000000e-01   7.00000000e-01 
  0.00000000e+00   7.00000000e-01   8.00000000e-01 
  0.00000000e+00   7.00000000e-01   9.00000000e-01 
  0.00000000e+00   8.00000000e-01   0.00000000e+00 
  0.00000000e+00   8.00000000e-01   1.00000000e-01 
  0.00000000e+00   8.00000000e-01   2.00000000e-01 
  0.00000000e+00   8.00000000e-01   3.00000000e-01 
  0.00000000e+00   8.00000000e-01   4.00000000e-01 
  0.00000000e+00   8.00000000e-01   5.00000000e-01 
  0.00000000e+00   8.00000000e-01   6.00000000e-01 
  0.00000000e+00   8.00000000e-01   7.00000000e-01 
  0.00000000e+00   8.00000000e-01   8.00000000e-01 
  0.00000000e+00   8.00000000e-01   9.00000000e-01 
  0.00000000e+00   9.00000000e-01   0.00000000e+00 
  0.00000000e+00   9.00000000e-01   1.00000000e-01 
  0.00000000e+00   9.00000000e-01   2.00000000e-01 
  0.00000000e+00   9.00000000e-01   3.00000000e-01 
  0.00000000e+00   9.00000000e-01   4.00000000e-01 
  0.00000000e+00   9.00000000e-01   5.00000000e-01 
  0.00000000e+00   9.00000000e-01   6.00000000e-01 
  0.00000000e+00   9.00000000e-01   7.00000000e-01 
  0.00000000e+00   9.00000000e-01   8.00000000e-01 
  0.00000000e+00   9.00000000e-01   9.00000000e-01 
  1.00000000e-01   0.00000000e+00   0.00000000e+00 
  1.00000000e-01   0.00000000e+00   1.00000000e-01 
  1.00000000e-01   0.00000000e+00   2.00000000e-01 
  1.00000000e-01   0.00000000e+00   3.00000000e-01 
  1.00000000e-01   0.00000000e+00   4.00000000e-01 
  1.00000000e-01   0.00000000e+00   5.00000000e-01 
  1.00000000e-01   0.00000000e+00   6.00000000e-01 
  1.00000000e-01   0.00000000e+00   7.00000000e-01 
  1.00000000e-01   0.00000000e+00   8.00000000e-01 
  1.00000000e-01   0.00000000e+00   9.00000000e-01 
  1.00000000e-01   1.00000000e-01   0.00000000e+00 
  1.00000000e-01   1.00000000e-01   1.00000000e-01 
  1.00000000e-01   1.00000000e-01   2.00000000e-01 
  1.00000000e-01   1.00000000e-01   3.00000000e-01 
  1.00000000e-01   1.00000000e-01   4.00000000e-01 
  1.00000000e-01   1.00000000e-01   5.00000000e-01 
  1.00000000e-01   1.00000000e-01   6.00000000e-01 
  1.00000000e-01   1.00000000e-01   7.00000000e-01 
  1.00000000e-01   1.00000000e-01   8.00000000e-01 
  1.00000000e-01   1.00000000e-01   9.00000000e-01 
  1.00000000e-01   2.00000000e-01   0.00000000e+00 
  1.00000000e-01   2.00000000e-01   1.00000000e-01 
  1.00000000e-01   2.00000000e-01   2.00000000e-01 
  1.00000000e-01   2.00000000e-01   3.00000000e-01 
  1.00000000e-01   2.00000000e-01   4.00000000e-01 
  1.00000000e-01   2.00000000e-01   5.00000000e-01 
  1.00000000e-01   2.00000000e-01   6.00000000e-01 
  1.00000000e-01   2.00000000e-01   7.00000000e-01 
  1.00000000e-01   2.00000000e-01   8.00000000e-01 
  1.00000000e-01   2.00000000e-01   9.00000000e-01 
  1.00000000e-01   3.00000000e-01   0.00000000e+00 
  1.00000000e-01   3.00000000e-01   1.00000000e-01 
  1.00000000e-01   3.00000000e-01   2.00000000e-01 
  1.00000000e-01   3.00000000e-01   3.00000000e-01 
  1.00000000e-01   3.00000000e-01   4.00000000e-01 
  1.00000000e-01   3.00000000e-01   5.00000000e-01 
  1.00000000e-01   3.00000000e-01   6.00000000e-01 
  1.00000000e-01   3.00000000e-01   7.00000000e-01 
  1.00000000e-01   3.00000000e-01   8.00000000e-01 
  1.00000000e-01   3.00000000e-01   9.00000000e-01 
  1.00000000e-01   4.00000000e-01   0.00000000e+00 
  1.00000000e-01   4.00000000e-01   1.00000000e-01 
  1.00000000e-01   4.00000000e-01   2.00000000e-01 
  1.00000000e-01   4.00000000e-01   3.00000000e-01 
  1.00000000e-01   4.00000000e-01   4.00000000e-01 
  1.00000000e-01   4.00000000e-01   5.00000000e-01 
  1.00000000e-01   4.00000000e-01   6.00000000e-01 
  1.00000000e-01   4.00000000e-01   7.00000000e-01 
  1.00000000e-01   4.00000000e-01   8.00000000e-01 
  1.00000000e-01   4.00000000e-01   9.00000000e-01 
  1.00000000e-01   5.00000000e-01   0.00000000e+00 
  1.00000000e-01   5.00000000e-01   1.00000000e-01 
  1.00000000e-01   5.00000000e-01   2.00000000e-01 
  1.00000000e-01   5.00000000e-01   3.00000000e-01 
  1.00000000e-01   5.00000000e-01   4.00000000e-01 
  1.00000000e-01   5.00000000e-01   5.00000000e-01 
  1.00000000e-01   5.00000000e-01   6.00000000e-01 
  1.00000000e-01   5.00000000e-01   7.00000000e-01 
  1.00000000e-01   5.00000000e-01   8.00000000e-01 
  1.00000000e-01   5.00000000e-01   9.00000000e-01 
  1.00000000e-01   6.00000000e-01   0.00000000e+00 
  1.00000000e-01   6.00000000e-01   1.00000000e-01 
  1.00000000e-01   6.00000000e-01   2.00000000e-01 
  1.00000000e-01   6.00000000e-01   3.00000000e-01 
  1.00000000e-01   6.00000000e-01   4.00000000e-01 
  1.00000000e-01   6.00000000e-01   5.00000000e-01 
  1.00000000e-01   6.00000000e-01   6.00000000e-01 
  1.00000000e-01   6.00000000e-01   7.00000000e-01 
  1.00000000e-01   6.00000000e-01   8.00000000e-01 
  1.00000000e-01   6.00000000e-01   9.00000000e-01 
  1.00000000e-01   7.00000000e-01   0.00000000e+00 
  1.00000000e-01   7.00000000e-01   1.00000000e-01 
  1.00000000e-01   7.00000000e-01   2.00000000e-01 
  1.00000000e-01   7.00000000e-01   3.00000000e-01 
  1.00000000e-01   7.00000000e-01   4.00000000e-01 
  1.00000000e-01   7.00000000e-01   5.00000000e-01 
  1.00000000e-01   7.00000000e-01   6.00000000e-01 
  1.00000000e-01   7.00000000e-01   7.00000000e-01 
  1.00000000e-01   7.00000000e-01   8.00000000e-01 
  1.00000000e-01   7.00000000e-01   9.00000000e-01 
  1.00000000e-01   8.00000000e-01   0.00000000e+00 
  1.00000000e-01   8.00000000e-01   1.00000000e-01 
  1.00000000e-01   8.00000000e-01   2.00000000e-01 
  1.00000000e-01   8.00000000e-01   3.00000000e-01 
  1.00000000e-01   8.00000000e-01   4.00000000e-01 
  1.00000000e-01   8.00000000e-01   5.00000000e-01 
  1.00000000e-01   8.00000000e-01   6.00000000e-01 
  1.00000000e-01   8.00000000e-01   7.00000000e-01 
  1.00000000e-01   8.00000000e-01   8.00000000e-01 
[...]
POINT_DATA   1000
FIELD solution 1
u 3   1000 DOUBLE
   -2.62027100e-04     9.59015891e-05     8.90633611e-05 
   -2.70661946e-04     9.23920802e-05     6.83656773e-05 
   -2.77504311e-04     9.21074514e-05     4.66434135e-05 
   -2.78556334e-04     9.05363853e-05     2.75430954e-05 
   -2.76628127e-04     9.02041435e-05     1.02978049e-05 
   -2.76628730e-04     9.02042702e-05    -1.03009987e-05 
   -2.78556915e-04     9.05349204e-05    -2.75459095e-05 
   -2.77505766e-04     9.21075213e-05    -4.66490075e-05 
   -2.70664762e-04     9.23888598e-05    -6.83788270e-05 
   -2.61919748e-04     9.58712701e-05    -8.90685874e-05 
   -2.67356921e-04     6.85671716e-05     9.14569623e-05 
   -2.72032895e-04     6.91649008e-05     6.86962925e-05 
   -2.79928865e-04     6.74767161e-05     4.64625745e-05 
   -2.81530080e-04     6.65175568e-05     2.73886282e-05 
   -2.79665026e-04     6.69774360e-05     1.03691962e-05 
   -2.79665316e-04     6.69772638e-05    -1.03729864e-05 
   -2.81531038e-04     6.65168887e-05    -2.73920413e-05 
   -2.79930347e-04     6.74764728e-05    -4.64705704e-05 
   -2.72032783e-04     6.92093200e-05    -6.87446276e-05 
   -2.67360683e-04     6.85789572e-05    -9.14596743e-05 
   -2.75369768e-04     4.55455302e-05     9.14203394e-05 
   -2.79618841e-04     4.65956651e-05     6.67381056e-05 
   -2.87589103e-04     4.71426945e-05     4.69988597e-05 
   -2.89587039e-04     4.53824981e-05     2.72884181e-05 
   -2.87468045e-04     4.60177074e-05     9.91211392e-06 
   -2.87468458e-04     4.60178738e-05    -9.91560016e-06 
   -2.89587709e-04     4.53816362e-05    -2.72918408e-05 
   -2.87588955e-04     4.71661625e-05    -4.70250523e-05 
   -2.79620587e-04     4.66016792e-05    -6.67419154e-05 
   -2.75371895e-04     4.55482780e-05    -9.14266746e-05 
   -2.77259019e-04     2.72764806e-05     8.99686641e-05 
   -2.81239417e-04     2.73892323e-05     6.62060692e-05 
   -2.89424742e-04     2.74861361e-05     4.50306371e-05 
   -2.91389420e-04     2.83102065e-05     2.81128152e-05 
   -2.89163447e-04     2.74230269e-05     1.02733391e-05 
   -2.89163717e-04     2.74229451e-05    -1.02759347e-05 
   -2.91389379e-04     2.83194528e-05    -2.81248319e-05 
   -2.89425668e-04     2.74870120e-05    -4.50328552e-05 
   -2.81240943e-04     2.73894280e-05    -6.62105832e-05 
   -2.77260708e-04     2.72777685e-05    -8.99745446e-05 
   -2.75370902e-04     9.60695872e-06     8.98037703e-05 
   -2.79287384e-04     1.02729956e-05     6.65913326e-05 
   -2.87250533e-04     9.81814282e-06     4.57368638e-05 
   -2.89045318e-04     1.02351517e-05     2.70502528e-05 
   -2.86790924e-04     1.01792798e-05     1.00557656e-05 
   -2.86790993e-04     1.01885300e-05    -1.00665067e-05 
   -2.89045869e-04     1.02354935e-05    -2.70522872e-05 
   -2.87251557e-04     9.81804410e-06    -4.57399254e-05 
   -2.79288712e-04     1.02737251e-05    -6.65962191e-05 
   -2.75372394e-04     9.60685650e-06    -8.98102433e-05 
   -2.75370902e-04    -9.60695872e-06     8.98037703e-05 
   -2.79287384e-04    -1.02729956e-05     6.65913326e-05 
   -2.87250533e-04    -9.81814282e-06     4.57368638e-05 
   -2.89045318e-04    -1.02351517e-05     2.70502528e-05 
   -2.86790924e-04    -1.01792798e-05     1.00557656e-05 
   -2.86790993e-04    -1.01885300e-05    -1.00665067e-05 
   -2.89045869e-04    -1.02354935e-05    -2.70522872e-05 
   -2.87251557e-04    -9.81804410e-06    -4.57399254e-05 
   -2.79288712e-04    -1.02737251e-05    -6.65962191e-05 
   -2.75372394e-04    -9.60685650e-06    -8.98102433e-05 
   -2.77259019e-04    -2.72764806e-05     8.99686641e-05 
   -2.81239417e-04    -2.73892323e-05     6.62060692e-05 
   -2.89424742e-04    -2.74861361e-05     4.50306371e-05 
   -2.91389420e-04    -2.83102065e-05     2.81128152e-05 
   -2.89163447e-04    -2.74230269e-05     1.02733391e-05 
   -2.89163717e-04    -2.74229451e-05    -1.02759347e-05 
   -2.91389379e-04    -2.83194528e-05    -2.81248319e-05 
   -2.89425668e-04    -2.74870120e-05    -4.50328552e-05 
   -2.81240943e-04    -2.73894280e-05    -6.62105832e-05 
   -2.77260708e-04    -2.72777685e-05    -8.99745446e-05 
   -2.75369768e-04    -4.55455302e-05     9.14203394e-05 
   -2.79618841e-04    -4.65956651e-05     6.67381056e-05 
   -2.87589103e-04    -4.71426945e-05     4.69988597e-05 
   -2.89587039e-04    -4.53824981e-05     2.72884181e-05 
   -2.87468045e-04    -4.60177074e-05     9.91211392e-06 
   -2.87468458e-04    -4.60178738e-05    -9.91560016e-06 
   -2.89587709e-04    -4.53816362e-05    -2.72918408e-05 
   -2.87588955e-04    -4.71661625e-05    -4.70250523e-05 
   -2.79620587e-04    -4.66016792e-05    -6.67419154e-05 
   -2.75371895e-04    -4.55482780e-05    -9.14266746e-05 
   -2.67356921e-04    -6.85671716e-05     9.14569623e-05 
   -2.72032895e-04    -6.91649008e-05     6.86962925e-05 
   -2.79928865e-04    -6.74767161e-05     4.64625745e-05 
   -2.81530080e-04    -6.65175568e-05     2.73886282e-05 
   -2.79665026e-04    -6.69774360e-05     1.03691962e-05 
   -2.79665316e-04    -6.69772638e-05    -1.03729864e-05 
   -2.81531038e-04    -6.65168887e-05    -2.73920413e-05 
   -2.79930347e-04    -6.74764728e-05    -4.64705704e-05 
   -2.72032783e-04    -6.92093200e-05    -6.87446276e-05 
   -2.67360683e-04    -6.85789572e-05    -9.14596743e-05 
   -2.62027100e-04    -9.59015891e-05     8.90633611e-05 
   -2.70661946e-04    -9.23920802e-05     6.83656773e-05 
   -2.77504311e-04    -9.21074514e-05     4.66434135e-05 
   -2.78556334e-04    -9.05363853e-05     2.75430954e-05 
   -2.76628127e-04    -9.02041435e-05     1.02978049e-05 
   -2.76628730e-04    -9.02042702e-05    -1.03009987e-05 
   -2.78556915e-04    -9.05349204e-05    -2.75459095e-05 
   -2.77505766e-04    -9.21075213e-05    -4.66490075e-05 
   -2.70664762e-04    -9.23888598e-05    -6.83788270e-05 
   -2.61919748e-04    -9.58712701e-05    -8.90685874e-05 
   -2.20938601e-04     9.69851277e-05     9.59711633e-05 
   -2.27272838e-04     9.47365065e-05     8.10979524e-05 
   -2.33693992e-04     9.47438056e-05     5.50621252e-05 
   -2.36090986e-04     9.39268604e-05     3.12672664e-05 
   -2.35467974e-04     9.40291427e-05     1.03387907e-05 
   -2.35467882e-04     9.40290718e-05    -1.03381260e-05 
   -2.36092275e-04     9.39262337e-05    -3.12665187e-05 
   -2.33695353e-04     9.47438228e-05    -5.50615288e-05 
   -2.27271547e-04     9.47336590e-05    -8.11021278e-05 
   -2.20915623e-04     9.69776412e-05    -9.59669293e-05 
   -2.24794691e-04     8.13328851e-05     9.44465796e-05 
   -2.29873561e-04     8.05313625e-05     8.10485942e-05 
   -2.36327305e-04     8.01958248e-05     5.60544780e-05 
   -2.39622877e-04     7.94165457e-05     3.12038142e-05 
   -2.39335418e-04     7.96794566e-05     1.06651077e-05 
   -2.39335431e-04     7.96794314e-05    -1.06646497e-05 
   -2.39624016e-04     7.94159663e-05    -3.12033429e-05 
   -2.36325365e-04     8.01954968e-05    -5.60562541e-05 
   -2.29884144e-04     8.05279954e-05    -8.10474710e-05 
   -2.24793749e-04     8.13365825e-05    -9.44474946e-05 
   -2.32619019e-04     5.51766129e-05     9.45261513e-05 
   -2.36100670e-04     5.62185503e-05     8.01516643e-05 
   -2.43943624e-04     5.60281929e-05     5.62467200e-05 
   -2.46517800e-04     5.49990398e-05     3.15645022e-05 
   -2.46393161e-04     5.52992636e-05     1.05332276e-05 
   -2.46393384e-04     5.52992094e-05    -1.05332333e-05 
   -2.46517715e-04     5.49985055e-05    -3.15651694e-05 
   -2.43943500e-04     5.60305384e-05    -5.62499151e-05 
   -2.36098662e-04     5.62203470e-05    -8.01533905e-05 
   -2.32621657e-04     5.51766685e-05    -9.45303718e-05 
   -2.35127238e-04     3.13638714e-05     9.37559216e-05 
   -2.39137315e-04     3.10353433e-05     7.97020304e-05 
   -2.46342031e-04     3.15774794e-05     5.50722087e-05 
   -2.48977241e-04     3.17984638e-05     3.18590812e-05 
   -2.48378557e-04     3.07248414e-05     1.07182260e-05 
   -2.48378274e-04     3.07247820e-05    -1.07182497e-05 
   -2.48978449e-04     3.17993720e-05    -3.18603887e-05 
   -2.46341905e-04     3.15779319e-05    -5.50727634e-05 
   -2.39138018e-04     3.10347986e-05    -7.97045439e-05 
   -2.35128987e-04     3.13641802e-05    -9.37600430e-05 
   -2.35087843e-04     1.00004688e-05     9.38970988e-05 
   -2.39053423e-04     1.06802927e-05     7.97463432e-05 
   -2.46290938e-04     1.04290230e-05     5.53347326e-05 
   -2.48317176e-04     1.07183616e-05     3.06671134e-05 
   -2.47756771e-04     1.04452465e-05     1.04345338e-05 
   -2.47757114e-04     1.04466372e-05    -1.04357487e-05 
   -2.48317077e-04     1.07186464e-05    -3.06672324e-05 
   -2.46291380e-04     1.04286892e-05    -5.53356936e-05 
   -2.39053661e-04     1.06802262e-05    -7.97491265e-05 
   -2.35089170e-04     1.00001918e-05    -9.39015793e-05 
   -2.35087843e-04    -1.00004688e-05     9.38970988e-05 
   -2.39053423e-04    -1.06802927e-05     7.97463432e-05 
   -2.46290938e-04    -1.04290230e-05     5.53347326e-05 
   -2.48317176e-04    -1.07183616e-05     3.06671134e-05 
   -2.47756771e-04    -1.04452465e-05     1.04345338e-05 
   -2.47757114e-04    -1.04466372e-05    -1.04357487e-05 
   -2.48317077e-04    -1.07186464e-05    -3.06672324e-05 
   -2.46291380e-04    -1.04286892e-05    -5.53356936e-05 
   -2.39053661e-04    -1.06802262e-05    -7.97491265e-05 
   -2.35089170e-04    -1.00001918e-05    -9.39015793e-05 
   -2.35127238e-04    -3.13638714e-05     9.37559216e-05 
   -2.39137315e-04    -3.10353433e-05     7.97020304e-05 
   -2.46342031e-04    -3.15774794e-05     5.50722087e-05 
   -2.48977241e-04    -3.17984638e-05     3.18590812e-05 
   -2.48378557e-04    -3.07248414e-05     1.07182260e-05 
   -2.48378274e-04    -3.07247820e-05    -1.07182497e-05 
   -2.48978449e-04    -3.17993720e-05    -3.18603887e-05 
   -2.46341905e-04    -3.15779319e-05    -5.50727634e-05 
   -2.39138018e-04    -3.10347986e-05    -7.97045439e-05 
   -2.35128987e-04    -3.13641802e-05    -9.37600430e-05 
   -2.32619019e-04    -5.51766129e-05     9.45261513e-05 
   -2.36100670e-04    -5.62185503e-05     8.01516643e-05 
   -2.43943624e-04    -5.60281929e-05     5.62467200e-05 
   -2.46517800e-04    -5.49990398e-05     3.15645022e-05 
   -2.46393161e-04    -5.52992636e-05     1.05332276e-05 
   -2.46393384e-04    -5.52992094e-05    -1.05332333e-05 
   -2.46517715e-04    -5.49985055e-05    -3.15651694e-05 
   -2.43943500e-04    -5.60305384e-05    -5.62499151e-05 
   -2.36098662e-04    -5.62203471e-05    -8.01533905e-05 
   -2.32621657e-04    -5.51766685e-05    -9.45303718e-05 
   -2.24794691e-04    -8.13328851e-05     9.44465796e-05 
   -2.29873561e-04    -8.05313625e-05     8.10485942e-05 
   -2.36327305e-04    -8.01958248e-05     5.60544780e-05 
   -2.39622877e-04    -7.94165457e-05     3.12038142e-05 
   -2.39335418e-04    -7.96794566e-05     1.06651077e-05 
   -2.39335431e-04    -7.96794314e-05    -1.06646497e-05 
   -2.39624016e-04    -7.94159663e-05    -3.12033429e-05 
   -2.36325365e-04    -8.01954968e-05    -5.60562541e-05 
   -2.29884144e-04    -8.05279954e-05    -8.10474710e-05 
   -2.24793749e-04    -8.13365825e-05    -9.44474946e-05 
   -2.20938601e-04    -9.69851277e-05     9.59711633e-05 
   -2.27272838e-04    -9.47365065e-05     8.10979524e-05 
   -2.33693992e-04    -9.47438056e-05     5.50621252e-05 
   -2.36090986e-04    -9.39268604e-05     3.12672664e-05 
   -2.35467974e-04    -9.40291427e-05     1.03387907e-05 
   -2.35467882e-04    -9.40290718e-05    -1.03381260e-05 
   -2.36092275e-04    -9.39262337e-05    -3.12665187e-05 
   -2.33695353e-04    -9.47438228e-05    -5.50615288e-05 
   -2.27271547e-04    -9.47336590e-05    -8.11021278e-05 
   -2.20915623e-04    -9.69776412e-05    -9.59669293e-05 
   -1.65397026e-04     1.09362956e-04     1.07625763e-04 
   -1.70634982e-04     1.06611888e-04     8.70719884e-05 
   -1.74109939e-04     1.06865058e-04     6.31862251e-05 
   -1.77943633e-04     1.06578183e-04     3.64646094e-05 
   -1.79165423e-04     1.06999006e-04     1.10409623e-05 
   -1.79165855e-04     1.06998899e-04    -1.10409026e-05 
   -1.77944147e-04     1.06577524e-04    -3.64645171e-05 
   -1.74108312e-04     1.06863497e-04    -6.31889386e-05 
   -1.70634207e-04     1.06610450e-04    -8.70737301e-05 
   -1.65387483e-04     1.09361441e-04    -1.07627310e-04 
   -1.70330278e-04     8.63374917e-05     1.06235709e-04 
   -1.73834895e-04     8.71953024e-05     8.73769092e-05 
   -1.78377168e-04     8.58984696e-05     6.38499624e-05 
   -1.82962498e-04     8.58913450e-05     3.69579972e-05 
   -1.84656336e-04     8.61378498e-05     1.17148504e-05 
   -1.84656505e-04     8.61377625e-05    -1.17144999e-05 
   -1.82962260e-04     8.58907362e-05    -3.69584105e-05 
   -1.78377563e-04     8.58975823e-05    -6.38497177e-05 
   -1.73838594e-04     8.71935582e-05    -8.73767816e-05 
   -1.70331003e-04     8.63378559e-05    -1.06237262e-04 
   -1.73118108e-04     6.31551291e-05     1.06816277e-04 
   -1.78196900e-04     6.35111183e-05     8.58039000e-05 
   -1.82575572e-04     6.37303654e-05     6.39613317e-05 
   -1.86961241e-04     6.31721992e-05     3.73072254e-05 
   -1.88480680e-04     6.34009569e-05     1.15445781e-05 
   -1.88480340e-04     6.34010059e-05    -1.15450928e-05 
   -1.86961594e-04     6.31718305e-05    -3.73067572e-05 
   -1.82577808e-04     6.37300636e-05    -6.39621501e-05 
   -1.78197222e-04     6.35103285e-05    -8.58053013e-05 
   -1.73118024e-04     6.31573145e-05    -1.06817859e-04 
   -1.77480979e-04     3.68810532e-05     1.06520809e-04 
   -1.82801565e-04     3.69669572e-05     8.60094837e-05 
   -1.86817827e-04     3.72459259e-05     6.33020379e-05 
   -1.90976396e-04     3.76138227e-05     3.76657287e-05 
   -1.92127124e-04     3.65926391e-05     1.15754883e-05 
   -1.92127389e-04     3.65922682e-05    -1.15756136e-05 
   -1.90977338e-04     3.76147210e-05    -3.76672095e-05 
   -1.86817658e-04     3.72454557e-05    -6.33031227e-05 
   -1.82800978e-04     3.69672476e-05    -8.60116138e-05 
   -1.77482448e-04     3.68814035e-05    -1.06523801e-04 
   -1.78977631e-04     1.08771688e-05     1.06943786e-04 
   -1.84482619e-04     1.15862599e-05     8.61548240e-05 
   -1.88310185e-04     1.14204514e-05     6.35233892e-05 
   -1.92079127e-04     1.15168022e-05     3.65504011e-05 
   -1.93184727e-04     1.13532417e-05     1.13567579e-05 
   -1.93184894e-04     1.13548603e-05    -1.13578775e-05 
   -1.92078996e-04     1.15162463e-05    -3.65508150e-05 
   -1.88309423e-04     1.14207523e-05    -6.35248342e-05 
   -1.84482752e-04     1.15862343e-05    -8.61576113e-05 
   -1.78978820e-04     1.08770763e-05    -1.06947231e-04 
   -1.78977631e-04    -1.08771688e-05     1.06943786e-04 
   -1.84482619e-04    -1.15862599e-05     8.61548240e-05 
   -1.88310185e-04    -1.14204514e-05     6.35233892e-05 
   -1.92079127e-04    -1.15168022e-05     3.65504011e-05 
   -1.93184727e-04    -1.13532417e-05     1.13567579e-05 
   -1.93184894e-04    -1.13548603e-05    -1.13578775e-05 
   -1.92078996e-04    -1.15162463e-05    -3.65508150e-05 
   -1.88309423e-04    -1.14207523e-05    -6.35248342e-05 
   -1.84482752e-04    -1.15862343e-05    -8.61576113e-05 
   -1.78978820e-04    -1.08770763e-05    -1.06947231e-04 
   -1.77480979e-04    -3.68810532e-05     1.06520809e-04 
   -1.82801565e-04    -3.69669572e-05     8.60094837e-05 
   -1.86817827e-04    -3.72459259e-05     6.33020379e-05 
   -1.90976396e-04    -3.76138227e-05     3.76657287e-05 
   -1.92127124e-04    -3.65926391e-05     1.15754883e-05 
   -1.92127389e-04    -3.65922682e-05    -1.15756136e-05 
   -1.90977338e-04    -3.76147210e-05    -3.76672095e-05 
   -1.86817658e-04    -3.72454557e-05    -6.33031227e-05 
   -1.82800978e-04    -3.69672476e-05    -8.60116138e-05 
   -1.77482448e-04    -3.68814035e-05    -1.06523801e-04 
   -1.73118108e-04    -6.31551291e-05     1.06816277e-04 
   -1.78196900e-04    -6.35111183e-05     8.58039000e-05 
   -1.82575572e-04    -6.37303654e-05     6.39613317e-05 
   -1.86961241e-04    -6.31721992e-05     3.73072254e-05 
   -1.88480680e-04    -6.34009569e-05     1.15445781e-05 
   -1.88480340e-04    -6.34010059e-05    -1.15450928e-05 
   -1.86961594e-04    -6.31718305e-05    -3.73067572e-05 
   -1.82577808e-04    -6.37300636e-05    -6.39621501e-05 
   -1.78197222e-04    -6.35103285e-05    -8.58053013e-05 
   -1.73118024e-04    -6.31573145e-05    -1.06817859e-04 
   -1.70330278e-04    -8.63374917e-05     1.06235709e-04 
   -1.73834895e-04    -8.71953024e-05     8.73769092e-05 
   -1.78377168e-04    -8.58984696e-05     6.38499624e-05 
   -1.82962498e-04    -8.58913450e-05     3.69579972e-05 
   -1.84656336e-04    -8.61378498e-05     1.17148504e-05 
   -1.84656505e-04    -8.61377625e-05    -1.17144999e-05 
   -1.82962260e-04    -8.58907362e-05    -3.69584105e-05 
   -1.78377563e-04    -8.58975823e-05    -6.38497177e-05 
   -1.73838594e-04    -8.71935582e-05    -8.73767816e-05 
   -1.70331003e-04    -8.63378559e-05    -1.06237262e-04 
   -1.65397026e-04    -1.09362956e-04     1.07625763e-04 
   -1.70634982e-04    -1.06611888e-04     8.70719884e-05 
   -1.74109939e-04    -1.06865058e-04     6.31862251e-05 
   -1.77943633e-04    -1.06578183e-04     3.64646094e-05 
   -1.79165423e-04    -1.06999006e-04     1.10409623e-05 
   -1.79165855e-04    -1.06998899e-04    -1.10409026e-05 
   -1.77944147e-04    -1.06577524e-04    -3.64645171e-05 
   -1.74108312e-04    -1.06863497e-04    -6.31889386e-05 
   -1.70634207e-04    -1.06610450e-04    -8.70737301e-05 
   -1.65387483e-04    -1.09361441e-04    -1.07627310e-04 
   -9.73359852e-05     1.15105280e-04     1.13067973e-04 
   -1.01753084e-04     1.12281225e-04     9.43034472e-05 
   -1.04559221e-04     1.13271826e-04     6.83896490e-05 
   -1.05425004e-04     1.13737836e-04     4.29779320e-05 
   -1.09148173e-04     1.14280167e-04     1.39829950e-05 
   -1.09148026e-04     1.14279986e-04    -1.39833139e-05 
   -1.05424309e-04     1.13737179e-04    -4.29792724e-05 
   -1.04558033e-04     1.13270871e-04    -6.83913921e-05 
   -1.01752627e-04     1.12280365e-04    -9.43055630e-05 
   -9.73267768e-05     1.15104714e-04    -1.13070017e-04 
   -1.01384622e-04     9.38329031e-05     1.11971259e-04 
   -1.04124495e-04     9.42275600e-05     9.43189986e-05 
   -1.07807229e-04     9.39348250e-05     6.83668887e-05 
   -1.09548546e-04     9.46788930e-05     4.29236347e-05 
   -1.13252451e-04     9.50661230e-05     1.44890680e-05 
   -1.13252072e-04     9.50661408e-05    -1.44894282e-05 
   -1.09548803e-04     9.46783448e-05    -4.29236125e-05 
   -1.07807300e-04     9.39342293e-05    -6.83669505e-05 
   -1.04128109e-04     9.42267211e-05    -9.43196076e-05 
   -1.01384813e-04     9.38338448e-05    -1.11972810e-04 
   -1.04481949e-04     6.75644033e-05     1.13125254e-04 
   -1.07913799e-04     6.79038403e-05     9.39529332e-05 
   -1.12337723e-04     6.89315786e-05     6.91064282e-05 
   -1.13564315e-04     6.83333903e-05     4.35385036e-05 
   -1.17277200e-04     6.87637489e-05     1.42792223e-05 
   -1.17277306e-04     6.87634283e-05    -1.42795675e-05 
   -1.13564596e-04     6.83330690e-05    -4.35386079e-05 
   -1.12339913e-04     6.89312292e-05    -6.91069764e-05 
   -1.07914627e-04     6.79032965e-05    -9.39540723e-05 
   -1.04482611e-04     6.75657520e-05    -1.13126786e-04 
   -1.04872826e-04     4.28191601e-05     1.13674178e-04 
   -1.09509464e-04     4.26062089e-05     9.47377435e-05 
   -1.13470283e-04     4.32904827e-05     6.83456939e-05 
   -1.14080182e-04     4.35216099e-05     4.36205601e-05 
   -1.17496749e-04     4.28955986e-05     1.46044641e-05 
   -1.17496628e-04     4.28956915e-05    -1.46044317e-05 
   -1.14081418e-04     4.35211993e-05    -4.36215687e-05 
   -1.13470301e-04     4.32899538e-05    -6.83467180e-05 
   -1.09510355e-04     4.26054331e-05    -9.47392044e-05 
   -1.04874091e-04     4.28197957e-05    -1.13676439e-04 
   -1.08983724e-04     1.38430921e-05     1.14218484e-04 
   -1.13094253e-04     1.44555888e-05     9.50941192e-05 
   -1.17180665e-04     1.41403430e-05     6.88418769e-05 