# vtk DataFile Version 2.0 
generated by Lattice Boltzmann Method time =   2.30940108e-01
ASCII 
DATASET UNSTRUCTURED_GRID

POINTS   1000 FLOAT 
  0.00000000e+00   0.00000000e+00   0.00000000e+00 
  0.00000000e+00   0.00000000e+00   1.00000000e-01 
  0.00000000e+00   0.00000000e+00   2.00000000e-01 
  0.00000000e+00   0.00000000e+00   3.00000000e-01 
  0.00000000e+00   0.00000000e+00   4.00000000e-01 
  0.00000000e+00   0.00000000e+00   5.00000000e-01 
  0.00000000e+00   0.00000000e+00   6.00000000e-01 
  0.00000000e+00   0.00000000e+00   7.00000000e-01 
  0.00000000e+00   0.00000000e+00   8.00000000e-01 
  0.00000000e+00   0.00000000e+00   9.00000000e-01 
  0.00000000e+00   1.00000000e-01   0.00000000e+00 
  0.00000000e+00   1.00000000e-01   1.00000000e-01 
  0.00000000e+00   1.00000000e-01   2.00000000e-01 
  0.00000000e+00   1.00000000e-01   3.00000000e-01 
  0.00000000e+00   1.00000000e-01   4.00000000e-01 
  0.00000000e+00   1.00000000e-01   5.00000000e-01 
  0.00000000e+00   1.00000000e-01   6.00000000e-01 
  0.00000000e+00   1.00000000e-01   7.00000000e-01 
  0.00000000e+00   1.00000000e-01   8.00000000e-01 
  0.00000000e+00   1.00000000e-01   9.00000000e-01 
  0.00000000e+00   2.00000000e-01   0.00000000e+00 
  0.00000000e+00   2.00000000e-01   1.00000000e-01 
  0.00000000e+00   2.00000000e-01   2.00000000e-01 
  0.00000000e+00   2.00000000e-01   3.00000000e-01 
  0.00000000e+00   2.00000000e-01   4.00000000e-01 
  0.00000000e+00   2.00000000e-01   5.00000000e-01 
  0.00000000e+00   2.00000000e-01   6.00000000e-01 
  0.00000000e+00   2.00000000e-01   7.00000000e-01 
  0.00000000e+00   2.00000000e-01   8.00000000e-01 
  0.00000000e+00   2.00000000e-01   9.00000000e-01 
  0.00000000e+00   3.00000000e-01   0.00000000e+00 
  0.00000000e+00   3.00000000e-01   1.00000000e-01 
  0.00000000e+00   3.00000000e-01   2.00000000e-01 
  0.00000000e+00   3.00000000e-01   3.00000000e-01 
  0.00000000e+00   3.00000000e-01   4.00000000e-01 
  0.00000000e+00   3.00000000e-01   5.00000000e-01 
  0.00000000e+00   3.00000000e-01   6.00000000e-01 
  0.00000000e+00   3.00000000e-01   7.00000000e-01 
  0.00000000e+00   3.00000000e-01   8.00000000e-01 
  0.00000000e+00   3.00000000e-01   9.00000000e-01 
  0.00000000e+00   4.00000000e-01   0.00000000e+00 
  0.00000000e+00   4.00000000e-01   1.00000000e-01 
  0.00000000e+00   4.00000000e-01   2.00000000e-01 
  0.00000000e+00   4.00000000e-01   3.00000000e-01 
  0.00000000e+00   4.00000000e-01   4.00000000e-01 
  0.00000000e+00   4.00000000e-01   5.00000000e-01 
  0.00000000e+00   4.00000000e-01   6.00000000e-01 
  0.00000000e+00   4.00000000e-01   7.00000000e-01 
  0.00000000e+00   4.00000000e-01   8.00000000e-01 
  0.00000000e+00   4.00000000e-01   9.00000000e-01 
  0.00000000e+00   5.00000000e-01   0.00000000e+00 
  0.00000000e+00   5.00000000e-01   1.00000000e-01 
  0.00000000e+00   5.00000000e-01   2.00000000e-01 
  0.00000000e+00   5.00000000e-01   3.00000000e-01 
  0.00000000e+00   5.00000000e-01   4.00000000e-01 
  0.00000000e+00   5.00000000e-01   5.00000000e-01 
  0.00000000e+00   5.00000000e-01   6.00000000e-01 
  0.00000000e+00   5.00000000e-01   7.00000000e-01 
  0.00000000e+00   5.00000000e-01   8.00000000e-01 
  0.00000000e+00   5.00000000e-01   9.00000000e-01 
  0.00000000e+00   6.00000000e-01   0.00000000e+00 
  0.00000000e+00   6.00000000e-01   1.00000000e-01 
  0.00000000e+00   6.00000000e-01   2.00000000e-01 
  0.00000000e+00   6.00000000e-01   3.00000000e-01 
  0.00000000e+00   6.00000000e-01   4.00000000e-01 
  0.00000000e+00   6.00000000e-01   5.00000000e-01 
  0.00000000e+00   6.00000000e-01   6.00000000e-01 
  0.00000000e+00   6.00000000e-01   7.00000000e-01 
  0.00000000e+00   6.00000000e-01   8.00000000e-01 
  0.00000000e+00   6.00000000e-01   9.00000000e-01 
  0.00000000e+00   7.00000000e-01   0.00000000e+00 
  0.00000000e+00   7.00000000e-01   1.00000000e-01 
  0.00000000e+00   7.00000000e-01   2.00000000e-01 
  0.00000000e+00   7.00000000e-01   3.00000000e-01 
  0.00000000e+00   7.00000000e-01   4.00000000e-01 
  0.00000000e+00   7.00000000e-01   5.00000000e-01 
  0.00000000e+00   7.00000000e-01   6.00000000e-01 
  0.00000000e+00   7.00000000e-01   7.00000000e-01 
  0.00000000e+00   7.00000000e-01   8.00000000e-01 
  0.00000000e+00   7.00000000e-01   9.00000000e-01 
  0.00000000e+00   8.00000000e-01   0.00000000e+00 
  0.00000000e+00   8.00000000e-01   1.00000000e-01 
  0.00000000e+00   8.00000000e-01   2.00000000e-01 
  0.00000000e+00   8.00000000e-01   3.00000000e-01 
  0.00000000e+00   8.00000000e-01   4.00000000e-01 
  0.00000000e+00   8.00000000e-01   5.00000000e-01 
  0.00000000e+00   8.00000000e-01   6.00000000e-01 
  0.00000000e+00   8.00000000e-01   7.00000000e-01 
  0.00000000e+00   8.00000000e-01   8.00000000e-01 
  0.00000000e+00   8.00000000e-01   9.00000000e-01 
  0.00000000e+00   9.00000000e-01   0.00000000e+00 
  0.00000000e+00   9.00000000e-01   1.00000000e-01 
  0.00000000e+00   9.00000000e-01   2.00000000e-01 
  0.00000000e+00   9.00000000e-01   3.00000000e-01 
  0.00000000e+00   9.00000000e-01   4.00000000e-01 
  0.00000000e+00   9.00000000e-01   5.00000000e-01 
  0.00000000e+00   9.00000000e-01   6.00000000e-01 
  0.00000000e+00   9.00000000e-01   7.00000000e-01 
  0.00000000e+00   9.00000000e-01   8.00000000e-01 
  0.00000000e+00   9.00000000e-01   9.00000000e-01 
  1.00000000e-01   0.00000000e+00   0.00000000e+00 
  1.00000000e-01   0.00000000e+00   1.00000000e-01 
  1.00000000e-01   0.00000000e+00   2.00000000e-01 
  1.00000000e-01   0.00000000e+00   3.00000000e-01 
  1.00000000e-01   0.00000000e+00   4.00000000e-01 
  1.00000000e-01   0.00000000e+00   5.00000000e-01 
  1.00000000e-01   0.00000000e+00   6.00000000e-01 
  1.00000000e-01   0.00000000e+00   7.00000000e-01 
  1.00000000e-01   0.00000000e+00   8.00000000e-01 
  1.00000000e-01   0.00000000e+00   9.00000000e-01 
  1.00000000e-01   1.00000000e-01   0.00000000e+00 
  1.00000000e-01   1.00000000e-01   1.00000000e-01 
  1.00000000e-01   1.00000000e-01   2.00000000e-01 
  1.00000000e-01   1.00000000e-01   3.00000000e-01 
  1.00000000e-01   1.00000000e-01   4.00000000e-01 
  1.00000000e-01   1.00000000e-01   5.00000000e-01 
  1.00000000e-01   1.00000000e-01   6.00000000e-01 
  1.00000000e-01   1.00000000e-01   7.00000000e-01 
  1.00000000e-01   1.00000000e-01   8.00000000e-01 
  1.00000000e-01   1.00000000e-01   9.00000000e-01 
  1.00000000e-01   2.00000000e-01   0.00000000e+00 
  1.00000000e-01   2.00000000e-01   1.00000000e-01 
  1.00000000e-01   2.00000000e-01   2.00000000e-01 
  1.00000000e-01   2.00000000e-01   3.00000000e-01 
  1.00000000e-01   2.00000000e-01   4.00000000e-01 
  1.00000000e-01   2.00000000e-01   5.00000000e-01 
  1.00000000e-01   2.00000000e-01   6.00000000e-01 
  1.00000000e-01   2.00000000e-01   7.00000000e-01 
  1.00000000e-01   2.00000000e-01   8.00000000e-01 
  1.00000000e-01   2.00000000e-01   9.00000000e-01 
  1.00000000e-01   3.00000000e-01   0.00000000e+00 
  1.00000000e-01   3.00000000e-01   1.00000000e-01 
  1.00000000e-01   3.00000000e-01   2.00000000e-01 
  1.00000000e-01   3.00000000e-01   3.00000000e-01 
  1.00000000e-01   3.00000000e-01   4.00000000e-01 
  1.00000000e-01   3.00000000e-01   5.00000000e-01 
  1.00000000e-01   3.00000000e-01   6.00000000e-01 
  1.00000000e-01   3.00000000e-01   7.00000000e-01 
  1.00000000e-01   3.00000000e-01   8.00000000e-01 
  1.00000000e-01   3.00000000e-01   9.00000000e-01 
  1.00000000e-01   4.00000000e-01   0.00000000e+00 
  1.00000000e-01   4.00000000e-01   1.00000000e-01 
  1.00000000e-01   4.00000000e-01   2.00000000e-01 
  1.00000000e-01   4.00000000e-01   3.00000000e-01 
  1.00000000e-01   4.00000000e-01   4.00000000e-01 
  1.00000000e-01   4.00000000e-01   5.00000000e-01 
  1.00000000e-01   4.00000000e-01   6.00000000e-01 
  1.00000000e-01   4.00000000e-01   7.00000000e-01 
  1.00000000e-01   4.00000000e-01   8.00000000e-01 
  1.00000000e-01   4.00000000e-01   9.00000000e-01 
  1.00000000e-01   5.00000000e-01   0.00000000e+00 
  1.00000000e-01   5.00000000e-01   1.00000000e-01 
  1.00000000e-01   5.00000000e-01   2.00000000e-01 
  1.00000000e-01   5.00000000e-01   3.00000000e-01 
  1.00000000e-01   5.00000000e-01   4.00000000e-01 
  1.00000000e-01   5.00000000e-01   5.00000000e-01 
  1.00000000e-01   5.00000000e-01   6.00000000e-01 
  1.00000000e-01   5.00000000e-01   7.00000000e-01 
  1.00000000e-01   5.00000000e-01   8.00000000e-01 
  1.00000000e-01   5.00000000e-01   9.00000000e-01 
  1.00000000e-01   6.00000000e-01   0.00000000e+00 
  1.00000000e-01   6.00000000e-01   1.00000000e-01 
  1.00000000e-01   6.00000000e-01   2.00000000e-01 
  1.00000000e-01   6.00000000e-01   3.00000000e-01 
  1.00000000e-01   6.00000000e-01   4.00000000e-01 
  1.00000000e-01   6.00000000e-01   5.00000000e-01 
  1.00000000e-01   6.00000000e-01   6.00000000e-01 
  1.00000000e-01   6.00000000e-01   7.00000000e-01 
  1.00000000e-01   6.00000000e-01   8.00000000e-01 
  1.00000000e-01   6.00000000e-01   9.00000000e-01 
  1.00000000e-01   7.00000000e-01   0.00000000e+00 
  1.00000000e-01   7.00000000e-01   1.00000000e-01 
  1.00000000e-01   7.00000000e-01   2.00000000e-01 
  1.00000000e-01   7.00000000e-01   3.00000000e-01 
  1.00000000e-01   7.00000000e-01   4.00000000e-01 
  1.00000000e-01   7.00000000e-01   5.00000000e-01 
  1.00000000e-01   7.00000000e-01   6.00000000e-01 
  1.00000000e-01   7.00000000e-01   7.00000000e-01 
  1.00000000e-01   7.00000000e-01   8.00000000e-01 
  1.00000000e-01   7.00000000e-01   9.00000000e-01 
  1.00000000e-01   8.00000000e-01   0.00000000e+00 
  1.00000000e-01   8.00000000e-01   1.00000000e-01 
  1.00000000e-01   8.00000000e-01   2.00000000e-01 
  1.00000000e-01   8.00000000e-01   3.00000000e-01 
  1.00000000e-01   8.00000000e-01   4.00000000e-01 
  1.00000000e-01   8.00000000e-01   5.00000000e-01 
  1.00000000e-01   8.00000000e-01   6.00000000e-01 
  1.00000000e-01   8.00000000e-01   7.00000000e-01 
  1.00000000e-01   8.00000000e-01   8.00000000e-01 
[...]
POINT_DATA   1000
FIELD solution 1
u 3   1000 DOUBLE
   -1.18960456e-04     2.13115555e-05     1.86844579e-05 
   -1.15935906e-04     2.24708344e-05     7.19311427e-06 
   -1.19147879e-04     2.39605073e-05     2.92814925e-06 
   -1.18992809e-04     2.44529213e-05     9.67841146e-08 
   -1.19002994e-04     2.44512238e-05     0.00000000e+00 
   -1.19002994e-04     2.44512238e-05     0.00000000e+00 
   -1.18992834e-04     2.44527875e-05    -9.83273779e-08 
   -1.19147675e-04     2.39621255e-05    -2.93075548e-06 
   -1.15936328e-04     2.24702442e-05    -7.19757303e-06 
   -1.18914258e-04     2.12984020e-05    -1.86843853e-05 
   -1.15232825e-04     5.31021309e-06     2.23528742e-05 
   -1.09128767e-04     9.10815644e-06     9.35698735e-06 
   -1.12935458e-04     7.93071766e-06     3.12855284e-06 
   -1.12812550e-04     8.12941913e-06     7.03885372e-08 
   -1.12822931e-04     8.09708886e-06     0.00000000e+00 
   -1.12822931e-04     8.09708886e-06     0.00000000e+00 
   -1.12812521e-04     8.12995984e-06    -7.20870860e-08 
   -1.12935344e-04     7.93094288e-06    -3.13336086e-06 
   -1.09128751e-04     9.12894607e-06    -9.37761574e-06 
   -1.15233247e-04     5.31720536e-06    -2.23524211e-05 
   -1.19198705e-04     1.96402569e-06     2.39532465e-05 
   -1.12951799e-04     2.98248070e-06     7.78464552e-06 
   -1.16660862e-04     3.58593406e-06     3.58593406e-06 
   -1.16854642e-04     3.16213166e-06     7.69883727e-08 
   -1.16866355e-04     3.14036065e-06     0.00000000e+00 
   -1.16866355e-04     3.14036065e-06     0.00000000e+00 
   -1.16854584e-04     3.16245655e-06    -7.89013504e-08 
   -1.16660747e-04     3.60115239e-06    -3.60115239e-06 
   -1.12951679e-04     2.98740716e-06    -7.78498919e-06 
   -1.19198493e-04     1.96744420e-06    -2.39548658e-05 
   -1.18992809e-04     9.67841146e-08     2.44529213e-05 
   -1.12812550e-04     7.03885372e-08     8.12941913e-06 
   -1.16854642e-04     7.69883727e-08     3.16213166e-06 
   -1.16607828e-04     2.03900507e-07     2.03900507e-07 
   -1.16666667e-04    -1.28197512e-17     0.00000000e+00 
   -1.16666667e-04    -1.28197512e-17     0.00000000e+00 
   -1.16607836e-04     2.09345863e-07    -2.09345863e-07 
   -1.16854584e-04     7.89013504e-08    -3.16245655e-06 
   -1.12812521e-04     7.20870860e-08    -8.12995984e-06 
   -1.18992834e-04     9.83273779e-08    -2.44527875e-05 
   -1.19002994e-04     0.00000000e+00     2.44512238e-05 
   -1.12822931e-04     0.00000000e+00     8.09708886e-06 
   -1.16866355e-04     0.00000000e+00     3.14036065e-06 
   -1.16666667e-04     0.00000000e+00    -1.27195969e-17 
   -1.16666667e-04     0.00000000e+00     0.00000000e+00 
   -1.16666667e-04     0.00000000e+00     0.00000000e+00 
   -1.16666667e-04     0.00000000e+00     1.24191340e-17 
   -1.16866355e-04     0.00000000e+00    -3.14036065e-06 
   -1.12822931e-04     0.00000000e+00    -8.09708886e-06 
   -1.19002994e-04     0.00000000e+00    -2.44512238e-05 
   -1.19002994e-04     0.00000000e+00     2.44512238e-05 
   -1.12822931e-04     0.00000000e+00     8.09708886e-06 
   -1.16866355e-04     0.00000000e+00     3.14036065e-06 
   -1.16666667e-04     0.00000000e+00    -1.27195969e-17 
   -1.16666667e-04     0.00000000e+00     0.00000000e+00 
   -1.16666667e-04     0.00000000e+00     0.00000000e+00 
   -1.16666667e-04     0.00000000e+00     1.24191340e-17 
   -1.16866355e-04     0.00000000e+00    -3.14036065e-06 
   -1.12822931e-04     0.00000000e+00    -8.09708886e-06 
   -1.19002994e-04     0.00000000e+00    -2.44512238e-05 
   -1.18992809e-04    -9.67841146e-08     2.44529213e-05 
   -1.12812550e-04    -7.03885372e-08     8.12941913e-06 
   -1.16854642e-04    -7.69883727e-08     3.16213166e-06 
   -1.16607828e-04    -2.03900507e-07     2.03900507e-07 
   -1.16666667e-04     1.31202142e-17     0.00000000e+00 
   -1.16666667e-04     1.31202142e-17     0.00000000e+00 
   -1.16607836e-04    -2.09345863e-07    -2.09345863e-07 
   -1.16854584e-04    -7.89013504e-08    -3.16245655e-06 
   -1.12812521e-04    -7.20870859e-08    -8.12995984e-06 
   -1.18992834e-04    -9.83273779e-08    -2.44527875e-05 
   -1.19198705e-04    -1.96402569e-06     2.39532465e-05 
   -1.12951799e-04    -2.98248070e-06     7.78464552e-06 
   -1.16660862e-04    -3.58593406e-06     3.58593406e-06 
   -1.16854642e-04    -3.16213166e-06     7.69883727e-08 
   -1.16866355e-04    -3.14036065e-06     0.00000000e+00 
   -1.16866355e-04    -3.14036065e-06     0.00000000e+00 
   -1.16854584e-04    -3.16245655e-06    -7.89013504e-08 
   -1.16660747e-04    -3.60115239e-06    -3.60115239e-06 
   -1.12951679e-04    -2.98740716e-06    -7.78498919e-06 
   -1.19198493e-04    -1.96744420e-06    -2.39548658e-05 
   -1.15232825e-04    -5.31021309e-06     2.23528742e-05 
   -1.09128767e-04    -9.10815644e-06     9.35698735e-06 
   -1.12935458e-04    -7.93071766e-06     3.12855284e-06 
   -1.12812550e-04    -8.12941913e-06     7.03885372e-08 
   -1.12822931e-04    -8.09708886e-06     0.00000000e+00 
   -1.12822931e-04    -8.09708886e-06     0.00000000e+00 
   -1.12812521e-04    -8.12995984e-06    -7.20870859e-08 
   -1.12935344e-04    -7.93094288e-06    -3.13336086e-06 
   -1.09128751e-04    -9.12894607e-06    -9.37761574e-06 
   -1.15233247e-04    -5.31720536e-06    -2.23524211e-05 
   -1.18960456e-04    -2.13115555e-05     1.86844579e-05 
   -1.15935906e-04    -2.24708344e-05     7.19311427e-06 
   -1.19147879e-04    -2.39605073e-05     2.92814925e-06 
   -1.18992809e-04    -2.44529213e-05     9.67841146e-08 
   -1.19002994e-04    -2.44512238e-05     0.00000000e+00 
   -1.19002994e-04    -2.44512238e-05     0.00000000e+00 
   -1.18992834e-04    -2.44527875e-05    -9.83273779e-08 
   -1.19147675e-04    -2.39621255e-05    -2.93075548e-06 
   -1.15936328e-04    -2.24702442e-05    -7.19757303e-06 
   -1.18914258e-04    -2.12984020e-05    -1.86843853e-05 
   -7.98278462e-05     2.15028345e-05     2.10188722e-05 
   -7.92310888e-05     2.05112474e-05     1.11430198e-05 
   -8.11425078e-05     2.17595503e-05     3.17694653e-06 
   -8.16926650e-05     2.20764330e-05     6.41660543e-08 
   -8.17289785e-05     2.20777249e-05     0.00000000e+00 
   -8.17289785e-05     2.20777249e-05     0.00000000e+00 
   -8.16923650e-05     2.20763611e-05    -6.46167450e-08 
   -8.11429908e-05     2.17606707e-05    -3.17720313e-06 
   -7.92296511e-05     2.05110014e-05    -1.11438690e-05 
   -7.98145781e-05     2.14992005e-05    -2.10153245e-05 
   -7.89140131e-05     1.14320729e-05     2.04777766e-05 
   -7.67962166e-05     1.32478659e-05     1.33404005e-05 
   -7.94072354e-05     1.19450249e-05     4.02536242e-06 
   -8.00575930e-05     1.19726972e-05     7.63088248e-08 
   -8.00898539e-05     1.19401101e-05     0.00000000e+00 
   -8.00898539e-05     1.19401101e-05     0.00000000e+00 
   -8.00574228e-05     1.19730630e-05    -7.66453432e-08 
   -7.94059930e-05     1.19451750e-05    -4.02710455e-06 
   -7.68010565e-05     1.32468846e-05    -1.33392761e-05 
   -7.89126067e-05     1.14329037e-05    -2.04775571e-05 
   -8.13387771e-05     3.29854207e-06     2.17595503e-05 
   -7.94600797e-05     4.02169768e-06     1.19413602e-05 
   -8.18024726e-05     4.63355261e-06     4.63355261e-06 
   -8.26700244e-05     3.74522352e-06     9.58531537e-08 
   -8.27251586e-05     3.71531350e-06     0.00000000e+00 
   -8.27251586e-05     3.71531350e-06     0.00000000e+00 
   -8.26694020e-05     3.74540483e-06    -9.67388911e-08 
   -8.18026033e-05     4.63610116e-06    -4.63610116e-06 
   -7.94588002e-05     4.02349382e-06    -1.19415642e-05 
   -8.13391187e-05     3.29900299e-06    -2.17606707e-05 
   -8.16926650e-05     6.41660543e-08     2.20764330e-05 
   -8.00575930e-05     7.63088248e-08     1.19726972e-05 
   -8.26700244e-05     9.58531537e-08     3.74522352e-06 
   -8.32320566e-05     1.90011535e-07     1.90011535e-07 
   -8.33333333e-05    -1.63251520e-17     0.00000000e+00 
   -8.33333333e-05    -1.63251520e-17     0.00000000e+00 
   -8.32311342e-05     1.91243126e-07    -1.91243126e-07 
   -8.26694020e-05     9.67388911e-08    -3.74540483e-06 
   -8.00574228e-05     7.66453432e-08    -1.19730630e-05 
   -8.16923650e-05     6.46167450e-08    -2.20763611e-05 
   -8.17289785e-05     0.00000000e+00     2.20777249e-05 
   -8.00898539e-05     0.00000000e+00     1.19401101e-05 
   -8.27251586e-05     0.00000000e+00     3.71531350e-06 
   -8.33333333e-05     0.00000000e+00    -1.32203685e-17 
   -8.33333333e-05     0.00000000e+00     0.00000000e+00 
   -8.33333333e-05     0.00000000e+00     0.00000000e+00 
   -8.33333333e-05     0.00000000e+00     1.35208314e-17 
   -8.27251586e-05     0.00000000e+00    -3.71531350e-06 
   -8.00898539e-05     0.00000000e+00    -1.19401101e-05 
   -8.17289785e-05     0.00000000e+00    -2.20777249e-05 
   -8.17289785e-05     0.00000000e+00     2.20777249e-05 
   -8.00898539e-05     0.00000000e+00     1.19401101e-05 
   -8.27251586e-05     0.00000000e+00     3.71531350e-06 
   -8.33333333e-05     0.00000000e+00    -1.32203685e-17 
   -8.33333333e-05     0.00000000e+00     0.00000000e+00 
   -8.33333333e-05     0.00000000e+00     0.00000000e+00 
   -8.33333333e-05     0.00000000e+00     1.35208314e-17 
   -8.27251586e-05     0.00000000e+00    -3.71531350e-06 
   -8.00898539e-05     0.00000000e+00    -1.19401101e-05 
   -8.17289785e-05     0.00000000e+00    -2.20777249e-05 
   -8.16926650e-05    -6.41660543e-08     2.20764330e-05 
   -8.00575930e-05    -7.63088248e-08     1.19726972e-05 
   -8.26700244e-05    -9.58531537e-08     3.74522352e-06 
   -8.32320566e-05    -1.90011535e-07     1.90011535e-07 
   -8.33333333e-05     1.57242261e-17     0.00000000e+00 
   -8.33333333e-05     1.57242261e-17     0.00000000e+00 
   -8.32311342e-05    -1.91243126e-07    -1.91243126e-07 
   -8.26694020e-05    -9.67388911e-08    -3.74540483e-06 
   -8.00574228e-05    -7.66453432e-08    -1.19730630e-05 
   -8.16923650e-05    -6.46167450e-08    -2.20763611e-05 
   -8.13387771e-05    -3.29854207e-06     2.17595503e-05 
   -7.94600797e-05    -4.02169768e-06     1.19413602e-05 
   -8.18024726e-05    -4.63355261e-06     4.63355261e-06 
   -8.26700244e-05    -3.74522352e-06     9.58531537e-08 
   -8.27251586e-05    -3.71531350e-06     0.00000000e+00 
   -8.27251586e-05    -3.71531350e-06     0.00000000e+00 
   -8.26694020e-05    -3.74540483e-06    -9.67388911e-08 
   -8.18026033e-05    -4.63610116e-06    -4.63610116e-06 
   -7.94588002e-05    -4.02349382e-06    -1.19415642e-05 
   -8.13391187e-05    -3.29900299e-06    -2.17606707e-05 
   -7.89140131e-05    -1.14320729e-05     2.04777766e-05 
   -7.67962166e-05    -1.32478659e-05     1.33404005e-05 
   -7.94072354e-05    -1.19450249e-05     4.02536242e-06 
   -8.00575930e-05    -1.19726972e-05     7.63088248e-08 
   -8.00898539e-05    -1.19401101e-05     0.00000000e+00 
   -8.00898539e-05    -1.19401101e-05     0.00000000e+00 
   -8.00574228e-05    -1.19730630e-05    -7.66453432e-08 
   -7.94059930e-05    -1.19451750e-05    -4.02710455e-06 
   -7.68010565e-05    -1.32468846e-05    -1.33392761e-05 
   -7.89126067e-05    -1.14329037e-05    -2.04775571e-05 
   -7.98278462e-05    -2.15028345e-05     2.10188722e-05 
   -7.92310888e-05    -2.05112474e-05     1.11430198e-05 
   -8.11425078e-05    -2.17595503e-05     3.17694653e-06 
   -8.16926650e-05    -2.20764330e-05     6.41660543e-08 
   -8.17289785e-05    -2.20777249e-05     0.00000000e+00 
   -8.17289785e-05    -2.20777249e-05     0.00000000e+00 
   -8.16923650e-05    -2.20763611e-05    -6.46167450e-08 
   -8.11429908e-05    -2.17606707e-05    -3.17720313e-06 
   -7.92296511e-05    -2.05110014e-05    -1.11438690e-05 
   -7.98145781e-05    -2.14992005e-05    -2.10153245e-05 
   -4.40430852e-05     1.41269383e-05     1.43673670e-05 
   -4.42456492e-05     1.08568910e-05     5.45169237e-06 
   -4.54833293e-05     1.12562470e-05     1.22996559e-06 
   -4.62943351e-05     1.12456516e-05     6.66132068e-08 
   -4.63259459e-05     1.12457848e-05     0.00000000e+00 
   -4.63259459e-05     1.12457848e-05     0.00000000e+00 
   -4.62941224e-05     1.12456218e-05    -6.69891228e-08 
   -4.54821340e-05     1.12562802e-05    -1.23109667e-06 
   -4.42456336e-05     1.08572524e-05    -5.45201138e-06 
   -4.40410893e-05     1.41271069e-05    -1.43675275e-05 
   -4.47427800e-05     5.66697250e-06     1.08635098e-05 
   -4.52783326e-05     7.58092316e-06     7.61833075e-06 
   -4.69127418e-05     5.65310835e-06     1.57031208e-06 
   -4.79065876e-05     5.53552253e-06     8.23641041e-08 
   -4.79581047e-05     5.49982853e-06     0.00000000e+00 
   -4.79581047e-05     5.49982853e-06     0.00000000e+00 
   -4.79060613e-05     5.53561380e-06    -8.29659841e-08 
   -4.69125766e-05     5.65316048e-06    -1.57035760e-06 
   -4.52806925e-05     7.58105060e-06    -7.61847452e-06 
   -4.47426344e-05     5.66740118e-06    -1.08638658e-05 
   -4.55812291e-05     1.08497813e-06     1.12562470e-05 
   -4.69229066e-05     1.54543244e-06     5.62822871e-06 
   -4.78634817e-05     2.13339543e-06     2.13339543e-06 
   -4.91351499e-05     1.07101400e-06     1.00127621e-07 
   -4.91787409e-05     1.04631059e-06     0.00000000e+00 
   -4.91787409e-05     1.04631059e-06     0.00000000e+00 
   -4.91348402e-05     1.07112508e-06    -1.00527399e-07 
   -4.78626476e-05     2.13402303e-06    -2.13402303e-06 
   -4.69227162e-05     1.54550236e-06    -5.62830525e-06 
   -4.55798875e-05     1.08625301e-06    -1.12562802e-05 
   -4.62943351e-05     6.66132068e-08     1.12456516e-05 
   -4.79065876e-05     8.23641041e-08     5.53552253e-06 
   -4.91351499e-05     1.00127621e-07     1.07101400e-06 
   -4.98895648e-05     1.59189360e-07     1.59189360e-07 
   -5.00000000e-05    -1.52234546e-17     0.00000000e+00 
   -5.00000000e-05    -1.52234546e-17     0.00000000e+00 
   -4.98888074e-05     1.60022088e-07    -1.60022088e-07 
   -4.91348402e-05     1.00527399e-07    -1.07112508e-06 
   -4.79060613e-05     8.29659841e-08    -5.53561380e-06 
   -4.62941224e-05     6.69891228e-08    -1.12456218e-05 
   -4.63259459e-05     0.00000000e+00     1.12457848e-05 
   -4.79581047e-05     0.00000000e+00     5.49982853e-06 
   -4.91787409e-05     0.00000000e+00     1.04631059e-06 
   -5.00000000e-05     0.00000000e+00    -1.29199055e-17 
   -5.00000000e-05     0.00000000e+00     0.00000000e+00 
   -5.00000000e-05     0.00000000e+00     0.00000000e+00 
   -5.00000000e-05     0.00000000e+00     1.23189797e-17 
   -4.91787409e-05     0.00000000e+00    -1.04631059e-06 
   -4.79581047e-05     0.00000000e+00    -5.49982853e-06 
   -4.63259459e-05     0.00000000e+00    -1.12457848e-05 
   -4.63259459e-05     0.00000000e+00     1.12457848e-05 
   -4.79581047e-05     0.00000000e+00     5.49982853e-06 
   -4.91787409e-05     0.00000000e+00     1.04631059e-06 
   -5.00000000e-05     0.00000000e+00    -1.29199055e-17 
   -5.00000000e-05     0.00000000e+00     0.00000000e+00 
   -5.00000000e-05     0.00000000e+00     0.00000000e+00 
   -5.00000000e-05     0.00000000e+00     1.23189797e-17 
   -4.91787409e-05     0.00000000e+00    -1.04631059e-06 
   -4.79581047e-05     0.00000000e+00    -5.49982853e-06 
   -4.63259459e-05     0.00000000e+00    -1.12457848e-05 
   -4.62943351e-05    -6.66132068e-08     1.12456516e-05 
   -4.79065876e-05    -8.23641041e-08     5.53552253e-06 
   -4.91351499e-05    -1.00127621e-07     1.07101400e-06 
   -4.98895648e-05    -1.59189360e-07     1.59189360e-07 
   -5.00000000e-05     1.47226831e-17     0.00000000e+00 
   -5.00000000e-05     1.47226831e-17     0.00000000e+00 
   -4.98888074e-05    -1.60022088e-07    -1.60022088e-07 
   -4.91348402e-05    -1.00527399e-07    -1.07112508e-06 
   -4.79060613e-05    -8.29659841e-08    -5.53561380e-06 
   -4.62941224e-05    -6.69891228e-08    -1.12456218e-05 
   -4.55812291e-05    -1.08497813e-06     1.12562470e-05 
   -4.69229066e-05    -1.54543244e-06     5.62822871e-06 
   -4.78634817e-05    -2.13339543e-06     2.13339543e-06 
   -4.91351499e-05    -1.07101400e-06     1.00127621e-07 
   -4.91787409e-05    -1.04631059e-06     0.00000000e+00 
   -4.91787409e-05    -1.04631059e-06     0.00000000e+00 
   -4.91348402e-05    -1.07112508e-06    -1.00527399e-07 
   -4.78626476e-05    -2.13402303e-06    -2.13402303e-06 
   -4.69227162e-05    -1.54550236e-06    -5.62830525e-06 
   -4.55798875e-05    -1.08625301e-06    -1.12562802e-05 
   -4.47427800e-05    -5.66697250e-06     1.08635098e-05 
   -4.52783326e-05    -7.58092316e-06     7.61833075e-06 
   -4.69127418e-05    -5.65310835e-06     1.57031208e-06 
   -4.79065876e-05    -5.53552253e-06     8.23641041e-08 
   -4.79581047e-05    -5.49982853e-06     0.00000000e+00 
   -4.79581047e-05    -5.49982853e-06     0.00000000e+00 
   -4.79060613e-05    -5.53561380e-06    -8.29659841e-08 
   -4.69125766e-05    -5.65316048e-06    -1.57035760e-06 
   -4.52806925e-05    -7.58105060e-06    -7.61847452e-06 
   -4.47426344e-05    -5.66740118e-06    -1.08638658e-05 
   -4.40430852e-05    -1.41269383e-05     1.43673670e-05 
   -4.42456492e-05    -1.08568910e-05     5.45169237e-06 
   -4.54833293e-05    -1.12562470e-05     1.22996559e-06 
   -4.62943351e-05    -1.12456516e-05     6.66132068e-08 
   -4.63259459e-05    -1.12457848e-05     0.00000000e+00 
   -4.63259459e-05    -1.12457848e-05     0.00000000e+00 
   -4.62941224e-05    -1.12456218e-05    -6.69891228e-08 
   -4.54821340e-05    -1.12562802e-05    -1.23109667e-06 
   -4.42456336e-05    -1.08572524e-05    -5.45201138e-06 
   -4.40410893e-05    -1.41271069e-05    -1.43675275e-05 
   -1.23592927e-05     6.72938089e-06     6.96969131e-06 
   -1.28609819e-05     2.77220079e-06     1.47552180e-06 
   -1.32502088e-05     2.79697079e-06     8.44447023e-07 
   -1.38136739e-05     2.83999014e-06     1.20225248e-07 
   -1.39338992e-05     2.82278807e-06     0.00000000e+00 
   -1.39338992e-05     2.82278807e-06     0.00000000e+00 
   -1.38131241e-05     2.83998433e-06    -1.20775086e-07 
   -1.32500933e-05     2.79696873e-06    -8.44399358e-07 
   -1.28609219e-05     2.77218884e-06    -1.47549533e-06 
   -1.23597061e-05     6.72935886e-06    -6.96966975e-06 
   -1.31264735e-05     1.48859926e-06     2.77808674e-06 
   -1.41752359e-05     2.95857242e-06     2.94385753e-06 
   -1.48616789e-05     9.18983371e-07     9.81816781e-07 
   -1.55197544e-05     8.52013636e-07     1.11675659e-07 
   -1.56314300e-05     8.10185185e-07     0.00000000e+00 
   -1.56314300e-05     8.10185185e-07     0.00000000e+00 
   -1.55195522e-05     8.52105102e-07    -1.11877807e-07 
   -1.48615564e-05     9.19049209e-07    -9.81863747e-07 
   -1.41751615e-05     2.95860104e-06    -2.94388536e-06 
   -1.31264276e-05     1.48856127e-06    -2.77807511e-06 
   -1.34061867e-05     6.88469197e-07     2.79697079e-06 
   -1.48881657e-05     9.55329980e-07     8.92496571e-07 
   -1.51559306e-05     1.38418342e-06     1.38418342e-06 
   -1.59417001e-05     6.76212385e-07     9.48225551e-08 
   -1.60365226e-05     6.30144033e-07     0.00000000e+00 
   -1.60365226e-05     6.30144033e-07     0.00000000e+00 
   -1.59415441e-05     6.76293099e-07    -9.49785672e-08 
   -1.51558117e-05     1.38421215e-06    -1.38421215e-06 
   -1.48880446e-05     9.55375517e-07    -8.92560979e-07 
   -1.34060795e-05     6.88413115e-07    -2.79696873e-06 
   -1.38136739e-05     1.20225248e-07     2.83999014e-06 
   -1.55197544e-05     1.11675659e-07     8.52013636e-07 
   -1.59417001e-05     9.48225551e-08     6.76212385e-07 
   -1.65005175e-05     1.66149193e-07     1.66149193e-07 
   -1.66666667e-05    -1.46225288e-17     0.00000000e+00 
   -1.66666667e-05    -1.46225288e-17     0.00000000e+00 
   -1.65002609e-05     1.66405799e-07    -1.66405799e-07 
   -1.59415441e-05     9.49785672e-08    -6.76293099e-07 
   -1.55195522e-05     1.11877807e-07    -8.52105102e-07 
   -1.38131241e-05     1.20775086e-07    -2.83998433e-06 
   -1.39338992e-05     0.00000000e+00     2.82278807e-06 
   -1.56314300e-05     0.00000000e+00     8.10185185e-07 
   -1.60365226e-05     0.00000000e+00     6.30144033e-07 