# vtk DataFile Version 2.0 
generated by Lattice Boltzmann Method time =   1.50111070e+00
ASCII 
DATASET UNSTRUCTURED_GRID

POINTS   1000 FLOAT 
  0.00000000e+00   0.00000000e+00   0.00000000e+00 
  0.00000000e+00   0.00000000e+00   1.00000000e-01 
  0.00000000e+00   0.00000000e+00   2.00000000e-01 
  0.00000000e+00   0.00000000e+00   3.00000000e-01 
  0.00000000e+00   0.00000000e+00   4.00000000e-01 
  0.00000000e+00   0.00000000e+00   5.00000000e-01 
  0.00000000e+00   0.00000000e+00   6.00000000e-01 
  0.00000000e+00   0.00000000e+00   7.00000000e-01 
  0.00000000e+00   0.00000000e+00   8.00000000e-01 
  0.00000000e+00   0.00000000e+00   9.00000000e-01 
  0.00000000e+00   1.00000000e-01   0.00000000e+00 
  0.00000000e+00   1.00000000e-01   1.00000000e-01 
  0.00000000e+00   1.00000000e-01   2.00000000e-01 
  0.00000000e+00   1.00000000e-01   3.00000000e-01 
  0.00000000e+00   1.00000000e-01   4.00000000e-01 
  0.00000000e+00   1.00000000e-01   5.00000000e-01 
  0.00000000e+00   1.00000000e-01   6.00000000e-01 
  0.00000000e+00   1.00000000e-01   7.00000000e-01 
  0.00000000e+00   1.00000000e-01   8.00000000e-01 
  0.00000000e+00   1.00000000e-01   9.00000000e-01 
  0.00000000e+00   2.00000000e-01   0.00000000e+00 
  0.00000000e+00   2.00000000e-01   1.00000000e-01 
  0.00000000e+00   2.00000000e-01   2.00000000e-01 
  0.00000000e+00   2.00000000e-01   3.00000000e-01 
  0.00000000e+00   2.00000000e-01   4.00000000e-01 
  0.00000000e+00   2.00000000e-01   5.00000000e-01 
  0.00000000e+00   2.00000000e-01   6.00000000e-01 
  0.00000000e+00   2.00000000e-01   7.00000000e-01 
  0.00000000e+00   2.00000000e-01   8.00000000e-01 
  0.00000000e+00   2.00000000e-01   9.00000000e-01 
  0.00000000e+00   3.00000000e-01   0.00000000e+00 
  0.00000000e+00   3.00000000e-01   1.00000000e-01 
  0.00000000e+00   3.00000000e-01   2.00000000e-01 
  0.00000000e+00   3.00000000e-01   3.00000000e-01 
  0.00000000e+00   3.00000000e-01   4.00000000e-01 
  0.00000000e+00   3.00000000e-01   5.00000000e-01 
  0.00000000e+00   3.00000000e-01   6.00000000e-01 
  0.00000000e+00   3.00000000e-01   7.00000000e-01 
  0.00000000e+00   3.00000000e-01   8.00000000e-01 
  0.00000000e+00   3.00000000e-01   9.00000000e-01 
  0.00000000e+00   4.00000000e-01   0.00000000e+00 
  0.00000000e+00   4.00000000e-01   1.00000000e-01 
  0.00000000e+00   4.00000000e-01   2.00000000e-01 
  0.00000000e+00   4.00000000e-01   3.00000000e-01 
  0.00000000e+00   4.00000000e-01   4.00000000e-01 
  0.00000000e+00   4.00000000e-01   5.00000000e-01 
  0.00000000e+00   4.00000000e-01   6.00000000e-01 
  0.00000000e+00   4.00000000e-01   7.00000000e-01 
  0.00000000e+00   4.00000000e-01   8.00000000e-01 
  0.00000000e+00   4.00000000e-01   9.00000000e-01 
  0.00000000e+00   5.00000000e-01   0.00000000e+00 
  0.00000000e+00   5.00000000e-01   1.00000000e-01 
  0.00000000e+00   5.00000000e-01   2.00000000e-01 
  0.00000000e+00   5.00000000e-01   3.00000000e-01 
  0.00000000e+00   5.00000000e-01   4.00000000e-01 
  0.00000000e+00   5.00000000e-01   5.00000000e-01 
  0.00000000e+00   5.00000000e-01   6.00000000e-01 
  0.00000000e+00   5.00000000e-01   7.00000000e-01 
  0.00000000e+00   5.00000000e-01   8.00000000e-01 
  0.00000000e+00   5.00000000e-01   9.00000000e-01 
  0.00000000e+00   6.00000000e-01   0.00000000e+00 
  0.00000000e+00   6.00000000e-01   1.00000000e-01 
  0.00000000e+00   6.00000000e-01   2.00000000e-01 
  0.00000000e+00   6.00000000e-01   3.00000000e-01 
  0.00000000e+00   6.00000000e-01   4.00000000e-01 
  0.00000000e+00   6.00000000e-01   5.00000000e-01 
  0.00000000e+00   6.00000000e-01   6.00000000e-01 
  0.00000000e+00   6.00000000e-01   7.00000000e-01 
  0.00000000e+00   6.00000000e-01   8.00000000e-01 
  0.00000000e+00   6.00000000e-01   9.00000000e-01 
  0.00000000e+00   7.00000000e-01   0.00000000e+00 
  0.00000000e+00   7.00000000e-01   1.00000000e-01 
  0.00000000e+00   7.00000000e-01   2.00000000e-01 
  0.00000000e+00   7.00000000e-01   3.00000000e-01 
  0.00000000e+00   7.00000000e-01   4.00000000e-01 
  0.00000000e+00   7.00000000e-01   5.00000000e-01 
  0.00000000e+00   7.00000000e-01   6.00000000e-01 
  0.00000000e+00   7.00000000e-01   7.00000000e-01 
  0.00000000e+00   7.00000000e-01   8.00000000e-01 
  0.00000000e+00   7.00000000e-01   9.00000000e-01 
  0.00000000e+00   8.00000000e-01   0.00000000e+00 
  0.00000000e+00   8.00000000e-01   1.00000000e-01 
  0.00000000e+00   8.00000000e-01   2.00000000e-01 
  0.00000000e+00   8.00000000e-01   3.00000000e-01 
  0.00000000e+00   8.00000000e-01   4.00000000e-01 
  0.00000000e+00   8.00000000e-01   5.00000000e-01 
  0.00000000e+00   8.00000000e-01   6.00000000e-01 
  0.00000000e+00   8.00000000e-01   7.00000000e-01 
  0.00000000e+00   8.00000000e-01   8.00000000e-01 
  0.00000000e+00   8.00000000e-01   9.00000000e-01 
  0.00000000e+00   9.00000000e-01   0.00000000e+00 
  0.00000000e+00   9.00000000e-01   1.00000000e-01 
  0.00000000e+00   9.00000000e-01   2.00000000e-01 
  0.00000000e+00   9.00000000e-01   3.00000000e-01 
  0.00000000e+00   9.00000000e-01   4.00000000e-01 
  0.00000000e+00   9.00000000e-01   5.00000000e-01 
  0.00000000e+00   9.00000000e-01   6.00000000e-01 
  0.00000000e+00   9.00000000e-01   7.00000000e-01 
  0.00000000e+00   9.00000000e-01   8.00000000e-01 
  0.00000000e+00   9.00000000e-01   9.00000000e-01 
  1.00000000e-01   0.00000000e+00   0.00000000e+00 
  1.00000000e-01   0.00000000e+00   1.00000000e-01 
  1.00000000e-01   0.00000000e+00   2.00000000e-01 
  1.00000000e-01   0.00000000e+00   3.00000000e-01 
  1.00000000e-01   0.00000000e+00   4.00000000e-01 
  1.00000000e-01   0.00000000e+00   5.00000000e-01 
  1.00000000e-01   0.00000000e+00   6.00000000e-01 
  1.00000000e-01   0.00000000e+00   7.00000000e-01 
  1.00000000e-01   0.00000000e+00   8.00000000e-01 
  1.00000000e-01   0.00000000e+00   9.00000000e-01 
  1.00000000e-01   1.00000000e-01   0.00000000e+00 
  1.00000000e-01   1.00000000e-01   1.00000000e-01 
  1.00000000e-01   1.00000000e-01   2.00000000e-01 
  1.00000000e-01   1.00000000e-01   3.00000000e-01 
  1.00000000e-01   1.00000000e-01   4.00000000e-01 
  1.00000000e-01   1.00000000e-01   5.00000000e-01 
  1.00000000e-01   1.00000000e-01   6.00000000e-01 
  1.00000000e-01   1.00000000e-01   7.00000000e-01 
  1.00000000e-01   1.00000000e-01   8.00000000e-01 
  1.00000000e-01   1.00000000e-01   9.00000000e-01 
  1.00000000e-01   2.00000000e-01   0.00000000e+00 
  1.00000000e-01   2.00000000e-01   1.00000000e-01 
  1.00000000e-01   2.00000000e-01   2.00000000e-01 
  1.00000000e-01   2.00000000e-01   3.00000000e-01 
  1.00000000e-01   2.00000000e-01   4.00000000e-01 
  1.00000000e-01   2.00000000e-01   5.00000000e-01 
  1.00000000e-01   2.00000000e-01   6.00000000e-01 
  1.00000000e-01   2.00000000e-01   7.00000000e-01 
  1.00000000e-01   2.00000000e-01   8.00000000e-01 
  1.00000000e-01   2.00000000e-01   9.00000000e-01 
  1.00000000e-01   3.00000000e-01   0.00000000e+00 
  1.00000000e-01   3.00000000e-01   1.00000000e-01 
  1.00000000e-01   3.00000000e-01   2.00000000e-01 
  1.00000000e-01   3.00000000e-01   3.00000000e-01 
  1.00000000e-01   3.00000000e-01   4.00000000e-01 
  1.00000000e-01   3.00000000e-01   5.00000000e-01 
  1.00000000e-01   3.00000000e-01   6.00000000e-01 
  1.00000000e-01   3.00000000e-01   7.00000000e-01 
  1.00000000e-01   3.00000000e-01   8.00000000e-01 
  1.00000000e-01   3.00000000e-01   9.00000000e-01 
  1.00000000e-01   4.00000000e-01   0.00000000e+00 
  1.00000000e-01   4.00000000e-01   1.00000000e-01 
  1.00000000e-01   4.00000000e-01   2.00000000e-01 
  1.00000000e-01   4.00000000e-01   3.00000000e-01 
  1.00000000e-01   4.00000000e-01   4.00000000e-01 
  1.00000000e-01   4.00000000e-01   5.00000000e-01 
  1.00000000e-01   4.00000000e-01   6.00000000e-01 
  1.00000000e-01   4.00000000e-01   7.00000000e-01 
  1.00000000e-01   4.00000000e-01   8.00000000e-01 
  1.00000000e-01   4.00000000e-01   9.00000000e-01 
  1.00000000e-01   5.00000000e-01   0.00000000e+00 
  1.00000000e-01   5.00000000e-01   1.00000000e-01 
  1.00000000e-01   5.00000000e-01   2.00000000e-01 
  1.00000000e-01   5.00000000e-01   3.00000000e-01 
  1.00000000e-01   5.00000000e-01   4.00000000e-01 
  1.00000000e-01   5.00000000e-01   5.00000000e-01 
  1.00000000e-01   5.00000000e-01   6.00000000e-01 
  1.00000000e-01   5.00000000e-01   7.00000000e-01 
  1.00000000e-01   5.00000000e-01   8.00000000e-01 
  1.00000000e-01   5.00000000e-01   9.00000000e-01 
  1.00000000e-01   6.00000000e-01   0.00000000e+00 
  1.00000000e-01   6.00000000e-01   1.00000000e-01 
  1.00000000e-01   6.00000000e-01   2.00000000e-01 
  1.00000000e-01   6.00000000e-01   3.00000000e-01 
  1.00000000e-01   6.00000000e-01   4.00000000e-01 
  1.00000000e-01   6.00000000e-01   5.00000000e-01 
  1.00000000e-01   6.00000000e-01   6.00000000e-01 
  1.00000000e-01   6.00000000e-01   7.00000000e-01 
  1.00000000e-01   6.00000000e-01   8.00000000e-01 
  1.00000000e-01   6.00000000e-01   9.00000000e-01 
  1.00000000e-01   7.00000000e-01   0.00000000e+00 
  1.00000000e-01   7.00000000e-01   1.00000000e-01 
  1.00000000e-01   7.00000000e-01   2.00000000e-01 
  1.00000000e-01   7.00000000e-01   3.00000000e-01 
  1.00000000e-01   7.00000000e-01   4.00000000e-01 
  1.00000000e-01   7.00000000e-01   5.00000000e-01 
  1.00000000e-01   7.00000000e-01   6.00000000e-01 
  1.00000000e-01   7.00000000e-01   7.00000000e-01 
  1.00000000e-01   7.00000000e-01   8.00000000e-01 
  1.00000000e-01   7.00000000e-01   9.00000000e-01 
  1.00000000e-01   8.00000000e-01   0.00000000e+00 
  1.00000000e-01   8.00000000e-01   1.00000000e-01 
  1.00000000e-01   8.00000000e-01   2.00000000e-01 
  1.00000000e-01   8.00000000e-01   3.00000000e-01 
  1.00000000e-01   8.00000000e-01   4.00000000e-01 
  1.00000000e-01   8.00000000e-01   5.00000000e-01 
  1.00000000e-01   8.00000000e-01   6.00000000e-01 
  1.00000000e-01   8.00000000e-01   7.00000000e-01 
  1.00000000e-01   8.00000000e-01   8.00000000e-01 
[...]
POINT_DATA   1000
FIELD solution 1
u 3   1000 DOUBLE
   -1.74388020e-04    -5.87379949e-07     3.65247316e-06 
   -1.49731925e-04     4.62250544e-06    -8.55192421e-06 
   -1.37905158e-04     1.14792403e-05    -7.39632135e-06 
   -1.24438042e-04     1.59142367e-05    -1.34491730e-05 
   -1.14501710e-04     2.04920092e-05    -2.11055082e-06 
   -1.14503397e-04     2.04909528e-05     2.09224050e-06 
   -1.24439695e-04     1.59113101e-05     1.34303327e-05 
   -1.37909528e-04     1.14765193e-05     7.37488699e-06 
   -1.49736138e-04     4.61956581e-06     8.53339969e-06 
   -1.74336598e-04    -6.16732313e-07    -3.65874360e-06 
   -1.50528434e-04    -6.99940708e-06     4.08829025e-06 
   -1.29015623e-04    -5.23121760e-06    -3.13560831e-06 
   -1.15265741e-04    -5.26991758e-08    -7.70364414e-06 
   -1.01653265e-04     2.58255305e-06    -9.98559144e-06 
   -9.14459309e-05     7.24710254e-06    -4.06831618e-06 
   -9.14469052e-05     7.24912301e-06     4.05571061e-06 
   -1.01656350e-04     2.57836097e-06     9.97226821e-06 
   -1.15270296e-04    -5.30693871e-08     7.69017739e-06 
   -1.29014557e-04    -5.22528602e-06     3.11612236e-06 
   -1.50541027e-04    -6.98512423e-06    -4.09585479e-06 
   -1.36878653e-04    -1.70649490e-05     1.23004522e-05 
   -1.14797232e-04    -1.12042025e-05    -9.49886047e-07 
   -9.96872314e-05    -6.98842077e-06    -4.81461550e-06 
   -8.59327320e-05    -5.29612668e-06    -9.64826183e-06 
   -7.48474272e-05    -3.73833143e-06    -3.49440324e-06 
   -7.48485803e-05    -3.73909459e-06     3.47992204e-06 
   -8.59352730e-05    -5.29832936e-06     9.63386281e-06 
   -9.96867227e-05    -6.97359975e-06     4.78293438e-06 
   -1.14802852e-04    -1.12046346e-05     9.38436212e-07 
   -1.36886804e-04    -1.70619959e-05    -1.23110621e-05 
   -1.24496624e-04    -1.32195541e-05     1.68231076e-05 
   -1.01439487e-04    -1.10969448e-05     4.13980843e-06 
   -8.58750382e-05    -9.37163820e-06    -4.89162842e-06 
   -7.18517618e-05    -7.53386519e-06    -6.92840763e-06 
   -6.07903044e-05    -7.19854935e-06    -4.10280954e-06 
   -6.07911537e-05    -7.19734891e-06     4.08916492e-06 
   -7.18518885e-05    -7.52212274e-06     6.89865449e-06 
   -8.58783484e-05    -9.37241409e-06     4.87823709e-06 
   -1.01444629e-04    -1.10995728e-05    -4.15406707e-06 
   -1.24503922e-04    -1.32151969e-05    -1.68349409e-05 
   -1.14776934e-04    -8.12474438e-06     2.14139439e-05 
   -9.14810860e-05    -5.76989990e-06     7.40148924e-06 
   -7.49592301e-05    -5.68464780e-06    -3.03377359e-06 
   -6.08492768e-05    -4.92267136e-06    -7.14405342e-06 
   -4.91527240e-05    -4.21755705e-06    -3.51993016e-06 
   -4.91528626e-05    -4.20710285e-06     3.49681884e-06 
   -6.08512152e-05    -4.92294038e-06     7.13092094e-06 
   -7.49620710e-05    -5.68616856e-06     3.02174241e-06 
   -9.14850407e-05    -5.76995731e-06    -7.41501176e-06 
   -1.14782536e-04    -8.12825011e-06    -2.14273868e-05 
   -1.14776934e-04     8.12474438e-06     2.14139439e-05 
   -9.14810860e-05     5.76989990e-06     7.40148924e-06 
   -7.49592301e-05     5.68464780e-06    -3.03377359e-06 
   -6.08492768e-05     4.92267136e-06    -7.14405342e-06 
   -4.91527240e-05     4.21755705e-06    -3.51993016e-06 
   -4.91528626e-05     4.20710285e-06     3.49681884e-06 
   -6.08512152e-05     4.92294038e-06     7.13092094e-06 
   -7.49620710e-05     5.68616856e-06     3.02174241e-06 
   -9.14850407e-05     5.76995731e-06    -7.41501176e-06 
   -1.14782536e-04     8.12825011e-06    -2.14273868e-05 
   -1.24496624e-04     1.32195541e-05     1.68231076e-05 
   -1.01439487e-04     1.10969448e-05     4.13980843e-06 
   -8.58750382e-05     9.37163820e-06    -4.89162842e-06 
   -7.18517618e-05     7.53386519e-06    -6.92840763e-06 
   -6.07903044e-05     7.19854935e-06    -4.10280954e-06 
   -6.07911537e-05     7.19734891e-06     4.08916492e-06 
   -7.18518885e-05     7.52212274e-06     6.89865449e-06 
   -8.58783484e-05     9.37241409e-06     4.87823709e-06 
   -1.01444629e-04     1.10995728e-05    -4.15406707e-06 
   -1.24503922e-04     1.32151969e-05    -1.68349409e-05 
   -1.36878653e-04     1.70649490e-05     1.23004522e-05 
   -1.14797232e-04     1.12042025e-05    -9.49886047e-07 
   -9.96872314e-05     6.98842077e-06    -4.81461550e-06 
   -8.59327320e-05     5.29612668e-06    -9.64826183e-06 
   -7.48474272e-05     3.73833143e-06    -3.49440324e-06 
   -7.48485803e-05     3.73909459e-06     3.47992204e-06 
   -8.59352730e-05     5.29832936e-06     9.63386281e-06 
   -9.96867227e-05     6.97359975e-06     4.78293438e-06 
   -1.14802852e-04     1.12046346e-05     9.38436213e-07 
   -1.36886804e-04     1.70619959e-05    -1.23110621e-05 
   -1.50528434e-04     6.99940708e-06     4.08829025e-06 
   -1.29015623e-04     5.23121760e-06    -3.13560831e-06 
   -1.15265741e-04     5.26991758e-08    -7.70364414e-06 
   -1.01653265e-04    -2.58255305e-06    -9.98559144e-06 
   -9.14459309e-05    -7.24710254e-06    -4.06831618e-06 
   -9.14469052e-05    -7.24912301e-06     4.05571061e-06 
   -1.01656350e-04    -2.57836097e-06     9.97226821e-06 
   -1.15270296e-04     5.30693870e-08     7.69017739e-06 
   -1.29014557e-04     5.22528602e-06     3.11612236e-06 
   -1.50541027e-04     6.98512423e-06    -4.09585479e-06 
   -1.74388020e-04     5.87379950e-07     3.65247316e-06 
   -1.49731925e-04    -4.62250544e-06    -8.55192421e-06 
   -1.37905158e-04    -1.14792403e-05    -7.39632135e-06 
   -1.24438042e-04    -1.59142367e-05    -1.34491730e-05 
   -1.14501710e-04    -2.04920092e-05    -2.11055082e-06 
   -1.14503397e-04    -2.04909528e-05     2.09224050e-06 
   -1.24439695e-04    -1.59113101e-05     1.34303327e-05 
   -1.37909528e-04    -1.14765193e-05     7.37488699e-06 
   -1.49736138e-04    -4.61956581e-06     8.53339969e-06 
   -1.74336598e-04     6.16732313e-07    -3.65874360e-06 
   -1.20406281e-04    -1.87649051e-05    -1.40348604e-05 
   -1.13188927e-04    -1.30149580e-05    -1.60880841e-05 
   -9.63055524e-05    -6.27927697e-06    -1.84801307e-05 
   -8.93396631e-05    -1.57596548e-06    -1.72794877e-05 
   -8.24973777e-05     2.97346088e-06    -6.47026437e-06 
   -8.24938593e-05     2.97269362e-06     6.46557494e-06 
   -8.93461141e-05    -1.57719205e-06     1.72740181e-05 
   -9.63065730e-05    -6.28129319e-06     1.84737434e-05 
   -1.13198874e-04    -1.30186927e-05     1.60841160e-05 
   -1.20380869e-04    -1.87742658e-05     1.40393503e-05 
   -1.07005984e-04    -1.61354823e-05    -1.31364979e-05 
   -9.65015906e-05    -1.55163696e-05    -1.00395251e-05 
   -8.18744691e-05    -9.93000810e-06    -1.74690888e-05 
   -7.38884237e-05    -8.69767688e-06    -1.32016575e-05 
   -6.76392734e-05    -4.06584238e-06    -6.99090944e-06 
   -6.76361939e-05    -4.06244006e-06     6.98758434e-06 
   -7.38942169e-05    -8.70323981e-06     1.31966690e-05 
   -8.18720711e-05    -9.92896113e-06     1.74677903e-05 
   -9.65185889e-05    -1.55283531e-05     1.00369425e-05 
   -1.07009384e-04    -1.61277239e-05     1.31363492e-05 
   -9.88088202e-05    -2.42001141e-05    -5.71914859e-06 
   -8.37350820e-05    -1.81019991e-05    -1.14617548e-05 
   -7.07380688e-05    -1.48605344e-05    -1.28068697e-05 
   -6.04133536e-05    -1.21209714e-05    -1.38769428e-05 
   -5.45116191e-05    -1.11799470e-05    -5.41666760e-06 
   -5.45098249e-05    -1.11817629e-05     5.41076421e-06 
   -6.04154613e-05    -1.21219066e-05     1.38703656e-05 
   -7.07414155e-05    -1.48636498e-05     1.28011283e-05 
   -8.37383767e-05    -1.81023748e-05     1.14582249e-05 
   -9.88170364e-05    -2.42007358e-05     5.71414624e-06 
   -8.80375067e-05    -1.77478966e-05    -1.13211917e-06 
   -7.27069639e-05    -1.58900084e-05    -6.68520489e-06 
   -6.02767996e-05    -1.36327892e-05    -1.23980776e-05 
   -4.96952983e-05    -1.22817870e-05    -1.14307319e-05 
   -4.39128724e-05    -1.24076777e-05    -5.99865587e-06 
   -4.39117467e-05    -1.24058624e-05     5.99266740e-06 
   -4.96999891e-05    -1.22813895e-05     1.14218190e-05 
   -6.02769879e-05    -1.36309474e-05     1.23930635e-05 
   -7.27106013e-05    -1.58914920e-05     6.67654331e-06 
   -8.80417497e-05    -1.77421677e-05     1.12478177e-06 
   -8.38054002e-05    -9.95629914e-06     3.30749628e-06 
   -6.80566664e-05    -6.92417100e-06    -4.51916840e-06 
   -5.50107284e-05    -7.24014675e-06    -1.05397092e-05 
   -4.36837684e-05    -6.24432758e-06    -1.23406271e-05 
   -3.77678231e-05    -5.92385158e-06    -5.37225320e-06 
   -3.77661078e-05    -5.92365781e-06     5.36498015e-06 
   -4.36859000e-05    -6.24380816e-06     1.23354873e-05 
   -5.50125838e-05    -7.24236946e-06     1.05353615e-05 
   -6.80606204e-05    -6.92426691e-06     4.51217613e-06 
   -8.38109987e-05    -9.95998060e-06    -3.31607906e-06 
   -8.38054002e-05     9.95629914e-06     3.30749628e-06 
   -6.80566664e-05     6.92417100e-06    -4.51916840e-06 
   -5.50107284e-05     7.24014675e-06    -1.05397092e-05 
   -4.36837684e-05     6.24432758e-06    -1.23406271e-05 
   -3.77678231e-05     5.92385158e-06    -5.37225320e-06 
   -3.77661078e-05     5.92365781e-06     5.36498015e-06 
   -4.36859000e-05     6.24380816e-06     1.23354873e-05 
   -5.50125838e-05     7.24236946e-06     1.05353615e-05 
   -6.80606204e-05     6.92426691e-06     4.51217613e-06 
   -8.38109987e-05     9.95998060e-06    -3.31607906e-06 
   -8.80375067e-05     1.77478966e-05    -1.13211917e-06 
   -7.27069639e-05     1.58900084e-05    -6.68520489e-06 
   -6.02767996e-05     1.36327892e-05    -1.23980776e-05 
   -4.96952983e-05     1.22817870e-05    -1.14307319e-05 
   -4.39128724e-05     1.24076777e-05    -5.99865587e-06 
   -4.39117467e-05     1.24058624e-05     5.99266740e-06 
   -4.96999891e-05     1.22813895e-05     1.14218190e-05 
   -6.02769879e-05     1.36309474e-05     1.23930635e-05 
   -7.27106013e-05     1.58914920e-05     6.67654331e-06 
   -8.80417497e-05     1.77421677e-05     1.12478177e-06 
   -9.88088202e-05     2.42001141e-05    -5.71914859e-06 
   -8.37350820e-05     1.81019991e-05    -1.14617548e-05 
   -7.07380688e-05     1.48605344e-05    -1.28068697e-05 
   -6.04133536e-05     1.21209714e-05    -1.38769428e-05 
   -5.45116191e-05     1.11799470e-05    -5.41666760e-06 
   -5.45098249e-05     1.11817629e-05     5.41076421e-06 
   -6.04154613e-05     1.21219066e-05     1.38703656e-05 
   -7.07414155e-05     1.48636498e-05     1.28011283e-05 
   -8.37383767e-05     1.81023748e-05     1.14582249e-05 
   -9.88170364e-05     2.42007358e-05     5.71414624e-06 
   -1.07005984e-04     1.61354823e-05    -1.31364979e-05 
   -9.65015906e-05     1.55163696e-05    -1.00395251e-05 
   -8.18744691e-05     9.93000810e-06    -1.74690888e-05 
   -7.38884237e-05     8.69767688e-06    -1.32016575e-05 
   -6.76392734e-05     4.06584238e-06    -6.99090944e-06 
   -6.76361939e-05     4.06244006e-06     6.98758434e-06 
   -7.38942169e-05     8.70323981e-06     1.31966690e-05 
   -8.18720711e-05     9.92896113e-06     1.74677903e-05 
   -9.65185889e-05     1.55283531e-05     1.00369425e-05 
   -1.07009384e-04     1.61277239e-05     1.31363492e-05 
   -1.20406281e-04     1.87649051e-05    -1.40348604e-05 
   -1.13188927e-04     1.30149580e-05    -1.60880841e-05 
   -9.63055524e-05     6.27927697e-06    -1.84801307e-05 
   -8.93396631e-05     1.57596548e-06    -1.72794877e-05 
   -8.24973777e-05    -2.97346088e-06    -6.47026437e-06 
   -8.24938593e-05    -2.97269362e-06     6.46557494e-06 
   -8.93461141e-05     1.57719205e-06     1.72740181e-05 
   -9.63065730e-05     6.28129319e-06     1.84737434e-05 
   -1.13198874e-04     1.30186927e-05     1.60841160e-05 
   -1.20380869e-04     1.87742658e-05     1.40393503e-05 
   -9.89117187e-05    -2.66478187e-05    -2.11038144e-05 
   -8.15184441e-05    -2.53570921e-05    -3.17716784e-05 
   -7.33471480e-05    -1.65842624e-05    -2.89528250e-05 
   -6.77452138e-05    -1.13959795e-05    -2.34268773e-05 
   -6.78572577e-05    -7.23238786e-06    -6.61664628e-06 
   -6.78578140e-05    -7.23348172e-06     6.60966786e-06 
   -6.77461066e-05    -1.13970338e-05     2.34222566e-05 
   -7.33497746e-05    -1.65875460e-05     2.89460779e-05 
   -8.15217294e-05    -2.53580108e-05     3.17667057e-05 
   -9.89014690e-05    -2.66482726e-05     2.10987999e-05 
   -8.41735512e-05    -3.46043060e-05    -2.53332552e-05 
   -6.70568411e-05    -2.77722304e-05    -2.75312884e-05 
   -5.86280814e-05    -2.48887935e-05    -2.72821587e-05 
   -5.26009015e-05    -2.09285603e-05    -2.08222876e-05 
   -5.29109471e-05    -1.78062486e-05    -6.59648158e-06 
   -5.29120605e-05    -1.78044848e-05     6.59282278e-06 
   -5.26002404e-05    -2.09321811e-05     2.08190669e-05 
   -5.86331768e-05    -2.48894822e-05     2.72820231e-05 
   -6.70679640e-05    -2.77773710e-05     2.75326809e-05 
   -8.41828203e-05    -3.46022261e-05     2.53306870e-05 
   -7.32061573e-05    -3.28877860e-05    -1.60186624e-05 
   -5.74452660e-05    -2.91223516e-05    -2.46985649e-05 
   -4.82504757e-05    -2.37608419e-05    -2.21806117e-05 
   -4.27273418e-05    -2.23086866e-05    -1.98276965e-05 
   -4.27903658e-05    -2.11199282e-05    -6.19308849e-06 
   -4.27902863e-05    -2.11206449e-05     6.18690027e-06 
   -4.27276194e-05    -2.23097438e-05     1.98237113e-05 
   -4.82581491e-05    -2.37650433e-05     2.21774695e-05 
   -5.74478521e-05    -2.91252190e-05     2.46956808e-05 
   -7.32103329e-05    -3.28870317e-05     1.60166622e-05 
   -6.84828698e-05    -2.45978741e-05    -1.09267786e-05 
   -5.31857091e-05    -2.17102683e-05    -2.00985563e-05 
   -4.30334250e-05    -1.99724555e-05    -2.25119323e-05 
   -3.76576452e-05    -1.78967570e-05    -1.73693131e-05 
   -3.76530503e-05    -1.80434000e-05    -6.98209288e-06 
   -3.76535694e-05    -1.80432271e-05     6.97599541e-06 
   -3.76596955e-05    -1.78969595e-05     1.73611763e-05 
   -4.30342113e-05    -1.99734582e-05     2.25068396e-05 
   -5.31857859e-05    -2.17116750e-05     2.00930031e-05 
   -6.84861643e-05    -2.45972589e-05     1.09210918e-05 
   -6.84037614e-05    -9.73427807e-06    -6.90802984e-06 
   -5.30323254e-05    -8.02022803e-06    -1.78611591e-05 
   -4.28037466e-05    -7.69050141e-06    -2.07654782e-05 
   -3.75698407e-05    -7.42711468e-06    -1.78222315e-05 
   -3.68746414e-05    -6.87297333e-06    -6.51657692e-06 
   -3.68763081e-05    -6.87108878e-06     6.50937287e-06 
   -3.75719593e-05    -7.42730472e-06     1.78164283e-05 
   -4.28058228e-05    -7.69062237e-06     2.07604269e-05 
   -5.30355725e-05    -8.01993610e-06     1.78554110e-05 
   -6.84089501e-05    -9.73472053e-06     6.90157360e-06 
   -6.84037614e-05     9.73427807e-06    -6.90802984e-06 
   -5.30323254e-05     8.02022803e-06    -1.78611591e-05 
   -4.28037466e-05     7.69050141e-06    -2.07654782e-05 
   -3.75698407e-05     7.42711468e-06    -1.78222315e-05 
   -3.68746414e-05     6.87297333e-06    -6.51657692e-06 
   -3.68763081e-05     6.87108878e-06     6.50937287e-06 
   -3.75719593e-05     7.42730472e-06     1.78164283e-05 
   -4.28058228e-05     7.69062237e-06     2.07604269e-05 
   -5.30355725e-05     8.01993610e-06     1.78554110e-05 
   -6.84089501e-05     9.73472053e-06     6.90157360e-06 
   -6.84828698e-05     2.45978741e-05    -1.09267786e-05 
   -5.31857091e-05     2.17102683e-05    -2.00985563e-05 
   -4.30334250e-05     1.99724555e-05    -2.25119323e-05 
   -3.76576452e-05     1.78967570e-05    -1.73693131e-05 
   -3.76530503e-05     1.80434000e-05    -6.98209288e-06 
   -3.76535694e-05     1.80432271e-05     6.97599541e-06 
   -3.76596955e-05     1.78969595e-05     1.73611763e-05 
   -4.30342113e-05     1.99734582e-05     2.25068396e-05 
   -5.31857859e-05     2.17116750e-05     2.00930031e-05 
   -6.84861643e-05     2.45972589e-05     1.09210918e-05 
   -7.32061573e-05     3.28877860e-05    -1.60186624e-05 
   -5.74452660e-05     2.91223516e-05    -2.46985649e-05 
   -4.82504757e-05     2.37608419e-05    -2.21806117e-05 
   -4.27273418e-05     2.23086866e-05    -1.98276965e-05 
   -4.27903658e-05     2.11199282e-05    -6.19308849e-06 
   -4.27902863e-05     2.11206449e-05     6.18690027e-06 
   -4.27276194e-05     2.23097438e-05     1.98237113e-05 
   -4.82581491e-05     2.37650433e-05     2.21774695e-05 
   -5.74478521e-05     2.91252190e-05     2.46956808e-05 
   -7.32103329e-05     3.28870317e-05     1.60166622e-05 
   -8.41735512e-05     3.46043060e-05    -2.53332552e-05 
   -6.70568411e-05     2.77722304e-05    -2.75312884e-05 
   -5.86280814e-05     2.48887935e-05    -2.72821587e-05 
   -5.26009015e-05     2.09285603e-05    -2.08222876e-05 
   -5.29109471e-05     1.78062486e-05    -6.59648158e-06 
   -5.29120605e-05     1.78044848e-05     6.59282278e-06 
   -5.26002404e-05     2.09321811e-05     2.08190669e-05 
   -5.86331768e-05     2.48894822e-05     2.72820231e-05 
   -6.70679640e-05     2.77773710e-05     2.75326809e-05 
   -8.41828203e-05     3.46022261e-05     2.53306870e-05 
   -9.89117187e-05     2.66478187e-05    -2.11038144e-05 
   -8.15184441e-05     2.53570921e-05    -3.17716784e-05 
   -7.33471480e-05     1.65842624e-05    -2.89528250e-05 
   -6.77452138e-05     1.13959795e-05    -2.34268773e-05 
   -6.78572577e-05     7.23238786e-06    -6.61664628e-06 
   -6.78578140e-05     7.23348172e-06     6.60966786e-06 
   -6.77461066e-05     1.13970338e-05     2.34222566e-05 
   -7.33497746e-05     1.65875460e-05     2.89460779e-05 
   -8.15217294e-05     2.53580108e-05     3.17667057e-05 
   -9.89014690e-05     2.66482726e-05     2.10987999e-05 
   -5.87505805e-05    -3.91252106e-05    -3.23807514e-05 
   -5.28238731e-05    -3.71437979e-05    -4.06723962e-05 
   -4.72645781e-05    -2.98796854e-05    -3.68596480e-05 
   -4.68195979e-05    -2.27980107e-05    -2.43947529e-05 
   -4.66306692e-05    -1.92059884e-05    -8.10417298e-06 
   -4.66293715e-05    -1.92065224e-05     8.09673452e-06 
   -4.68226104e-05    -2.27994013e-05     2.43875238e-05 
   -4.72643879e-05    -2.98818919e-05     3.68530585e-05 
   -5.28288610e-05    -3.71453990e-05     4.06631063e-05 
   -5.87364145e-05    -3.91268937e-05     3.23756433e-05 
   -5.07760933e-05    -4.29945907e-05    -3.68452182e-05 
   -4.33314480e-05    -3.68521451e-05    -3.55957782e-05 
   -3.82583114e-05    -3.49023811e-05    -3.53301221e-05 
   -3.76738154e-05    -2.98889221e-05    -2.23089980e-05 
   -3.78287504e-05    -2.71863908e-05    -7.82246133e-06 
   -3.78274060e-05    -2.71852564e-05     7.81811484e-06 
   -3.76764656e-05    -2.98917165e-05     2.23052317e-05 
   -3.82593828e-05    -3.49028088e-05     3.53292900e-05 
   -4.33417295e-05    -3.68548580e-05     3.55907703e-05 
   -5.07776937e-05    -4.29885884e-05     3.68423008e-05 
   -4.83681679e-05    -3.98160984e-05    -2.94883774e-05 
   -3.94355805e-05    -3.67536183e-05    -3.39789174e-05 
   -3.53552338e-05    -3.07814607e-05    -3.02195467e-05 
   -3.43547792e-05    -2.96988147e-05    -2.16875719e-05 
   -3.45362944e-05    -2.85521273e-05    -7.35881121e-06 
   -3.45356876e-05    -2.85532278e-05     7.35355255e-06 
   -3.43574119e-05    -2.96996997e-05     2.16832406e-05 
   -3.53598432e-05    -3.07838877e-05     3.02166903e-05 
   -3.94391676e-05    -3.67562502e-05     3.39736087e-05 
   -4.83695659e-05    -3.98146082e-05     2.94853592e-05 
   -4.66850427e-05    -2.66923704e-05    -2.23702360e-05 
   -3.82129263e-05    -2.44011919e-05    -2.98703684e-05 
   -3.40881978e-05    -2.23583958e-05    -2.97999607e-05 
   -3.22295317e-05    -2.00751706e-05    -1.96747437e-05 
   -3.23813832e-05    -2.04657618e-05    -7.21259455e-06 
   -3.23811888e-05    -2.04646434e-05     7.20742497e-06 
   -3.22361228e-05    -2.00766687e-05     1.96679275e-05 
   -3.40897768e-05    -2.23584954e-05     2.97946616e-05 
   -3.82167380e-05    -2.44027968e-05     2.98650253e-05 
   -4.66881679e-05    -2.66897280e-05     2.23658572e-05 
   -4.76079036e-05    -1.03623019e-05    -1.89846131e-05 
   -3.82449806e-05    -8.42675862e-06    -2.75055345e-05 
   -3.48384720e-05    -8.04278113e-06    -2.82697540e-05 