# vtk DataFile Version 2.0 
generated by Lattice Boltzmann Method time =   1.03923048e+00
ASCII 
DATASET UNSTRUCTURED_GRID

POINTS   1000 FLOAT 
  0.00000000e+00   0.00000000e+00   0.00000000e+00 
  0.00000000e+00   0.00000000e+00   1.00000000e-01 
  0.00000000e+00   0.00000000e+00   2.00000000e-01 
  0.00000000e+00   0.00000000e+00   3.00000000e-01 
  0.00000000e+00   0.00000000e+00   4.00000000e-01 
  0.00000000e+00   0.00000000e+00   5.00000000e-01 
  0.00000000e+00   0.00000000e+00   6.00000000e-01 
  0.00000000e+00   0.00000000e+00   7.00000000e-01 
  0.00000000e+00   0.00000000e+00   8.00000000e-01 
  0.00000000e+00   0.00000000e+00   9.00000000e-01 
  0.00000000e+00   1.00000000e-01   0.00000000e+00 
  0.00000000e+00   1.00000000e-01   1.00000000e-01 
  0.00000000e+00   1.00000000e-01   2.00000000e-01 
  0.00000000e+00   1.00000000e-01   3.00000000e-01 
  0.00000000e+00   1.00000000e-01   4.00000000e-01 
  0.00000000e+00   1.00000000e-01   5.00000000e-01 
  0.00000000e+00   1.00000000e-01   6.00000000e-01 
  0.00000000e+00   1.00000000e-01   7.00000000e-01 
  0.00000000e+00   1.00000000e-01   8.00000000e-01 
  0.00000000e+00   1.00000000e-01   9.00000000e-01 
  0.00000000e+00   2.00000000e-01   0.00000000e+00 
  0.00000000e+00   2.00000000e-01   1.00000000e-01 
  0.00000000e+00   2.00000000e-01   2.00000000e-01 
  0.00000000e+00   2.00000000e-01   3.00000000e-01 
  0.00000000e+00   2.00000000e-01   4.00000000e-01 
  0.00000000e+00   2.00000000e-01   5.00000000e-01 
  0.00000000e+00   2.00000000e-01   6.00000000e-01 
  0.00000000e+00   2.00000000e-01   7.00000000e-01 
  0.00000000e+00   2.00000000e-01   8.00000000e-01 
  0.00000000e+00   2.00000000e-01   9.00000000e-01 
  0.00000000e+00   3.00000000e-01   0.00000000e+00 
  0.00000000e+00   3.00000000e-01   1.00000000e-01 
  0.00000000e+00   3.00000000e-01   2.00000000e-01 
  0.00000000e+00   3.00000000e-01   3.00000000e-01 
  0.00000000e+00   3.00000000e-01   4.00000000e-01 
  0.00000000e+00   3.00000000e-01   5.00000000e-01 
  0.00000000e+00   3.00000000e-01   6.00000000e-01 
  0.00000000e+00   3.00000000e-01   7.00000000e-01 
  0.00000000e+00   3.00000000e-01   8.00000000e-01 
  0.00000000e+00   3.00000000e-01   9.00000000e-01 
  0.00000000e+00   4.00000000e-01   0.00000000e+00 
  0.00000000e+00   4.00000000e-01   1.00000000e-01 
  0.00000000e+00   4.00000000e-01   2.00000000e-01 
  0.00000000e+00   4.00000000e-01   3.00000000e-01 
  0.00000000e+00   4.00000000e-01   4.00000000e-01 
  0.00000000e+00   4.00000000e-01   5.00000000e-01 
  0.00000000e+00   4.00000000e-01   6.00000000e-01 
  0.00000000e+00   4.00000000e-01   7.00000000e-01 
  0.00000000e+00   4.00000000e-01   8.00000000e-01 
  0.00000000e+00   4.00000000e-01   9.00000000e-01 
  0.00000000e+00   5.00000000e-01   0.00000000e+00 
  0.00000000e+00   5.00000000e-01   1.00000000e-01 
  0.00000000e+00   5.00000000e-01   2.00000000e-01 
  0.00000000e+00   5.00000000e-01   3.00000000e-01 
  0.00000000e+00   5.00000000e-01   4.00000000e-01 
  0.00000000e+00   5.00000000e-01   5.00000000e-01 
  0.00000000e+00   5.00000000e-01   6.00000000e-01 
  0.00000000e+00   5.00000000e-01   7.00000000e-01 
  0.00000000e+00   5.00000000e-01   8.00000000e-01 
  0.00000000e+00   5.00000000e-01   9.00000000e-01 
  0.00000000e+00   6.00000000e-01   0.00000000e+00 
  0.00000000e+00   6.00000000e-01   1.00000000e-01 
  0.00000000e+00   6.00000000e-01   2.00000000e-01 
  0.00000000e+00   6.00000000e-01   3.00000000e-01 
  0.00000000e+00   6.00000000e-01   4.00000000e-01 
  0.00000000e+00   6.00000000e-01   5.00000000e-01 
  0.00000000e+00   6.00000000e-01   6.00000000e-01 
  0.00000000e+00   6.00000000e-01   7.00000000e-01 
  0.00000000e+00   6.00000000e-01   8.00000000e-01 
  0.00000000e+00   6.00000000e-01   9.00000000e-01 
  0.00000000e+00   7.00000000e-01   0.00000000e+00 
  0.00000000e+00   7.00000000e-01   1.00000000e-01 
  0.00000000e+00   7.00000000e-01   2.00000000e-01 
  0.00000000e+00   7.00000000e-01   3.00000000e-01 
  0.00000000e+00   7.00000000e-01   4.00000000e-01 
  0.00000000e+00   7.00000000e-01   5.00000000e-01 
  0.00000000e+00   7.00000000e-01   6.00000000e-01 
  0.00000000e+00   7.00000000e-01   7.00000000e-01 
  0.00000000e+00   7.00000000e-01   8.00000000e-01 
  0.00000000e+00   7.00000000e-01   9.00000000e-01 
  0.00000000e+00   8.00000000e-01   0.00000000e+00 
  0.00000000e+00   8.00000000e-01   1.00000000e-01 
  0.00000000e+00   8.00000000e-01   2.00000000e-01 
  0.00000000e+00   8.00000000e-01   3.00000000e-01 
  0.00000000e+00   8.00000000e-01   4.00000000e-01 
  0.00000000e+00   8.00000000e-01   5.00000000e-01 
  0.00000000e+00   8.00000000e-01   6.00000000e-01 
  0.00000000e+00   8.00000000e-01   7.00000000e-01 
  0.00000000e+00   8.00000000e-01   8.00000000e-01 
  0.00000000e+00   8.00000000e-01   9.00000000e-01 
  0.00000000e+00   9.00000000e-01   0.00000000e+00 
  0.00000000e+00   9.00000000e-01   1.00000000e-01 
  0.00000000e+00   9.00000000e-01   2.00000000e-01 
  0.00000000e+00   9.00000000e-01   3.00000000e-01 
  0.00000000e+00   9.00000000e-01   4.00000000e-01 
  0.00000000e+00   9.00000000e-01   5.00000000e-01 
  0.00000000e+00   9.00000000e-01   6.00000000e-01 
  0.00000000e+00   9.00000000e-01   7.00000000e-01 
  0.00000000e+00   9.00000000e-01   8.00000000e-01 
  0.00000000e+00   9.00000000e-01   9.00000000e-01 
  1.00000000e-01   0.00000000e+00   0.00000000e+00 
  1.00000000e-01   0.00000000e+00   1.00000000e-01 
  1.00000000e-01   0.00000000e+00   2.00000000e-01 
  1.00000000e-01   0.00000000e+00   3.00000000e-01 
  1.00000000e-01   0.00000000e+00   4.00000000e-01 
  1.00000000e-01   0.00000000e+00   5.00000000e-01 
  1.00000000e-01   0.00000000e+00   6.00000000e-01 
  1.00000000e-01   0.00000000e+00   7.00000000e-01 
  1.00000000e-01   0.00000000e+00   8.00000000e-01 
  1.00000000e-01   0.00000000e+00   9.00000000e-01 
  1.00000000e-01   1.00000000e-01   0.00000000e+00 
  1.00000000e-01   1.00000000e-01   1.00000000e-01 
  1.00000000e-01   1.00000000e-01   2.00000000e-01 
  1.00000000e-01   1.00000000e-01   3.00000000e-01 
  1.00000000e-01   1.00000000e-01   4.00000000e-01 
  1.00000000e-01   1.00000000e-01   5.00000000e-01 
  1.00000000e-01   1.00000000e-01   6.00000000e-01 
  1.00000000e-01   1.00000000e-01   7.00000000e-01 
  1.00000000e-01   1.00000000e-01   8.00000000e-01 
  1.00000000e-01   1.00000000e-01   9.00000000e-01 
  1.00000000e-01   2.00000000e-01   0.00000000e+00 
  1.00000000e-01   2.00000000e-01   1.00000000e-01 
  1.00000000e-01   2.00000000e-01   2.00000000e-01 
  1.00000000e-01   2.00000000e-01   3.00000000e-01 
  1.00000000e-01   2.00000000e-01   4.00000000e-01 
  1.00000000e-01   2.00000000e-01   5.00000000e-01 
  1.00000000e-01   2.00000000e-01   6.00000000e-01 
  1.00000000e-01   2.00000000e-01   7.00000000e-01 
  1.00000000e-01   2.00000000e-01   8.00000000e-01 
  1.00000000e-01   2.00000000e-01   9.00000000e-01 
  1.00000000e-01   3.00000000e-01   0.00000000e+00 
  1.00000000e-01   3.00000000e-01   1.00000000e-01 
  1.00000000e-01   3.00000000e-01   2.00000000e-01 
  1.00000000e-01   3.00000000e-01   3.00000000e-01 
  1.00000000e-01   3.00000000e-01   4.00000000e-01 
  1.00000000e-01   3.00000000e-01   5.00000000e-01 
  1.00000000e-01   3.00000000e-01   6.00000000e-01 
  1.00000000e-01   3.00000000e-01   7.00000000e-01 
  1.00000000e-01   3.00000000e-01   8.00000000e-01 
  1.00000000e-01   3.00000000e-01   9.00000000e-01 
  1.00000000e-01   4.00000000e-01   0.00000000e+00 
  1.00000000e-01   4.00000000e-01   1.00000000e-01 
  1.00000000e-01   4.00000000e-01   2.00000000e-01 
  1.00000000e-01   4.00000000e-01   3.00000000e-01 
  1.00000000e-01   4.00000000e-01   4.00000000e-01 
  1.00000000e-01   4.00000000e-01   5.00000000e-01 
  1.00000000e-01   4.00000000e-01   6.00000000e-01 
  1.00000000e-01   4.00000000e-01   7.00000000e-01 
  1.00000000e-01   4.00000000e-01   8.00000000e-01 
  1.00000000e-01   4.00000000e-01   9.00000000e-01 
  1.00000000e-01   5.00000000e-01   0.00000000e+00 
  1.00000000e-01   5.00000000e-01   1.00000000e-01 
  1.00000000e-01   5.00000000e-01   2.00000000e-01 
  1.00000000e-01   5.00000000e-01   3.00000000e-01 
  1.00000000e-01   5.00000000e-01   4.00000000e-01 
  1.00000000e-01   5.00000000e-01   5.00000000e-01 
  1.00000000e-01   5.00000000e-01   6.00000000e-01 
  1.00000000e-01   5.00000000e-01   7.00000000e-01 
  1.00000000e-01   5.00000000e-01   8.00000000e-01 
  1.00000000e-01   5.00000000e-01   9.00000000e-01 
  1.00000000e-01   6.00000000e-01   0.00000000e+00 
  1.00000000e-01   6.00000000e-01   1.00000000e-01 
  1.00000000e-01   6.00000000e-01   2.00000000e-01 
  1.00000000e-01   6.00000000e-01   3.00000000e-01 
  1.00000000e-01   6.00000000e-01   4.00000000e-01 
  1.00000000e-01   6.00000000e-01   5.00000000e-01 
  1.00000000e-01   6.00000000e-01   6.00000000e-01 
  1.00000000e-01   6.00000000e-01   7.00000000e-01 
  1.00000000e-01   6.00000000e-01   8.00000000e-01 
  1.00000000e-01   6.00000000e-01   9.00000000e-01 
  1.00000000e-01   7.00000000e-01   0.00000000e+00 
  1.00000000e-01   7.00000000e-01   1.00000000e-01 
  1.00000000e-01   7.00000000e-01   2.00000000e-01 
  1.00000000e-01   7.00000000e-01   3.00000000e-01 
  1.00000000e-01   7.00000000e-01   4.00000000e-01 
  1.00000000e-01   7.00000000e-01   5.00000000e-01 
  1.00000000e-01   7.00000000e-01   6.00000000e-01 
  1.00000000e-01   7.00000000e-01   7.00000000e-01 
  1.00000000e-01   7.00000000e-01   8.00000000e-01 
  1.00000000e-01   7.00000000e-01   9.00000000e-01 
  1.00000000e-01   8.00000000e-01   0.00000000e+00 
  1.00000000e-01   8.00000000e-01   1.00000000e-01 
  1.00000000e-01   8.00000000e-01   2.00000000e-01 
  1.00000000e-01   8.00000000e-01   3.00000000e-01 
  1.00000000e-01   8.00000000e-01   4.00000000e-01 
  1.00000000e-01   8.00000000e-01   5.00000000e-01 
  1.00000000e-01   8.00000000e-01   6.00000000e-01 
  1.00000000e-01   8.00000000e-01   7.00000000e-01 
  1.00000000e-01   8.00000000e-01   8.00000000e-01 
[...]
POINT_DATA   1000
FIELD solution 1
u 3   1000 DOUBLE
   -9.80248291e-05     5.33437122e-05     5.74207726e-05 
   -1.07977559e-04     5.35252636e-05     4.12069212e-05 
   -1.19745912e-04     5.05119036e-05     2.48172798e-05 
   -1.27507961e-04     4.62931558e-05     1.03452989e-05 
   -1.30518332e-04     4.55867071e-05     2.88382864e-06 
   -1.30519325e-04     4.55885643e-05    -2.89185818e-06 
   -1.27509348e-04     4.62918112e-05    -1.03566362e-05 
   -1.19749712e-04     5.05131009e-05    -2.48290485e-05 
   -1.07983672e-04     5.35220051e-05    -4.12190524e-05 
   -9.79060495e-05     5.32874259e-05    -5.74108575e-05 
   -1.06307437e-04     4.28925744e-05     5.30737629e-05 
   -1.16894136e-04     3.91943829e-05     3.92803402e-05 
   -1.28927337e-04     3.60060337e-05     2.37494256e-05 
   -1.37564427e-04     3.14811935e-05     1.02908328e-05 
   -1.40828731e-04     2.97059684e-05     2.34754595e-06 
   -1.40829410e-04     2.97065228e-05    -2.35889689e-06 
   -1.37566685e-04     3.14811375e-05    -1.03034866e-05 
   -1.28931076e-04     3.60045530e-05    -2.37633356e-05 
   -1.16894047e-04     3.92227620e-05    -3.93167753e-05 
   -1.06316976e-04     4.28992915e-05    -5.30733754e-05 
   -1.18261851e-04     2.41310175e-05     5.01125800e-05 
   -1.28641436e-04     2.37597437e-05     3.50012668e-05 
   -1.42280128e-04     2.01945834e-05     1.98629734e-05 
   -1.52496509e-04     1.74679572e-05     8.02486730e-06 
   -1.56496784e-04     1.43259236e-05     1.61480742e-06 
   -1.56497345e-04     1.43265577e-05    -1.62827463e-06 
   -1.52497881e-04     1.74659260e-05    -8.04000346e-06 
   -1.42279480e-04     2.02212160e-05    -1.99036505e-05 
   -1.28645978e-04     2.37613262e-05    -3.50074545e-05 
   -1.18267821e-04     2.41283961e-05    -5.01173267e-05 
   -1.26229570e-04     1.16764939e-05     4.55153015e-05 
   -1.37232237e-04     1.07760838e-05     3.10811851e-05 
   -1.52399770e-04     8.89019537e-06     1.69343046e-05 
   -1.63230022e-04     6.81324111e-06     6.67973434e-06 
   -1.68149881e-04     5.05150964e-06     1.08932211e-06 
   -1.68150188e-04     5.05100006e-06    -1.10216602e-06 
   -1.63229314e-04     6.83611630e-06    -6.71716194e-06 
   -1.52401306e-04     8.89137022e-06    -1.69451473e-05 
   -1.37235446e-04     1.07751850e-05    -3.10901833e-05 
   -1.26232865e-04     1.16771582e-05    -4.55199061e-05 
   -1.29322516e-04     1.75984216e-06     4.47706057e-05 
   -1.40555988e-04     2.30848672e-06     2.89544156e-05 
   -1.56376589e-04     1.41563395e-06     1.41355886e-05 
   -1.68134071e-04     9.91391499e-07     5.24637362e-06 
   -1.72575691e-04     4.32363210e-07     7.81952425e-07 
   -1.72575332e-04     4.53493115e-07    -8.14322338e-07 
   -1.68134410e-04     9.91981378e-07    -5.25756069e-06 
   -1.56377503e-04     1.41568412e-06    -1.41466473e-05 
   -1.40557748e-04     2.31036286e-06    -2.89634307e-05 
   -1.29324379e-04     1.75729884e-06    -4.47774937e-05 
   -1.29322516e-04    -1.75984216e-06     4.47706057e-05 
   -1.40555988e-04    -2.30848672e-06     2.89544156e-05 
   -1.56376589e-04    -1.41563395e-06     1.41355886e-05 
   -1.68134071e-04    -9.91391499e-07     5.24637362e-06 
   -1.72575691e-04    -4.32363210e-07     7.81952425e-07 
   -1.72575332e-04    -4.53493115e-07    -8.14322338e-07 
   -1.68134410e-04    -9.91981378e-07    -5.25756069e-06 
   -1.56377503e-04    -1.41568412e-06    -1.41466473e-05 
   -1.40557748e-04    -2.31036286e-06    -2.89634307e-05 
   -1.29324379e-04    -1.75729884e-06    -4.47774937e-05 
   -1.26229570e-04    -1.16764939e-05     4.55153015e-05 
   -1.37232237e-04    -1.07760838e-05     3.10811851e-05 
   -1.52399770e-04    -8.89019537e-06     1.69343046e-05 
   -1.63230022e-04    -6.81324111e-06     6.67973434e-06 
   -1.68149881e-04    -5.05150964e-06     1.08932211e-06 
   -1.68150188e-04    -5.05100006e-06    -1.10216602e-06 
   -1.63229314e-04    -6.83611630e-06    -6.71716194e-06 
   -1.52401306e-04    -8.89137022e-06    -1.69451473e-05 
   -1.37235446e-04    -1.07751850e-05    -3.10901833e-05 
   -1.26232865e-04    -1.16771582e-05    -4.55199061e-05 
   -1.18261851e-04    -2.41310175e-05     5.01125800e-05 
   -1.28641436e-04    -2.37597437e-05     3.50012668e-05 
   -1.42280128e-04    -2.01945834e-05     1.98629734e-05 
   -1.52496509e-04    -1.74679572e-05     8.02486730e-06 
   -1.56496784e-04    -1.43259236e-05     1.61480742e-06 
   -1.56497345e-04    -1.43265577e-05    -1.62827463e-06 
   -1.52497881e-04    -1.74659260e-05    -8.04000346e-06 
   -1.42279480e-04    -2.02212160e-05    -1.99036505e-05 
   -1.28645978e-04    -2.37613262e-05    -3.50074545e-05 
   -1.18267821e-04    -2.41283961e-05    -5.01173267e-05 
   -1.06307437e-04    -4.28925744e-05     5.30737629e-05 
   -1.16894136e-04    -3.91943829e-05     3.92803402e-05 
   -1.28927337e-04    -3.60060337e-05     2.37494256e-05 
   -1.37564427e-04    -3.14811935e-05     1.02908328e-05 
   -1.40828731e-04    -2.97059684e-05     2.34754595e-06 
   -1.40829410e-04    -2.97065228e-05    -2.35889689e-06 
   -1.37566685e-04    -3.14811375e-05    -1.03034866e-05 
   -1.28931076e-04    -3.60045530e-05    -2.37633356e-05 
   -1.16894047e-04    -3.92227620e-05    -3.93167753e-05 
   -1.06316976e-04    -4.28992915e-05    -5.30733754e-05 
   -9.80248291e-05    -5.33437122e-05     5.74207726e-05 
   -1.07977559e-04    -5.35252636e-05     4.12069212e-05 
   -1.19745912e-04    -5.05119036e-05     2.48172798e-05 
   -1.27507961e-04    -4.62931558e-05     1.03452989e-05 
   -1.30518332e-04    -4.55867071e-05     2.88382864e-06 
   -1.30519325e-04    -4.55885643e-05    -2.89185818e-06 
   -1.27509348e-04    -4.62918112e-05    -1.03566362e-05 
   -1.19749712e-04    -5.05131009e-05    -2.48290485e-05 
   -1.07983672e-04    -5.35220051e-05    -4.12190524e-05 
   -9.79060495e-05    -5.32874259e-05    -5.74108575e-05 
   -5.45716047e-05     5.22529196e-05     5.53311955e-05 
   -6.70099814e-05     5.43268836e-05     4.69737055e-05 
   -7.60788046e-05     5.09587283e-05     2.96003460e-05 
   -8.47082339e-05     4.65630161e-05     1.41161504e-05 
   -8.92909186e-05     4.52519344e-05     3.77347865e-06 
   -8.92901107e-05     4.52529186e-05    -3.77205030e-06 
   -8.47107438e-05     4.65635458e-05    -1.41173227e-05 
   -7.60834924e-05     5.09601081e-05    -2.96007161e-05 
   -6.70136779e-05     5.43237379e-05    -4.69745973e-05 
   -5.45342229e-05     5.22427796e-05    -5.53215378e-05 
   -6.46065414e-05     4.70862919e-05     5.41324851e-05 
   -7.73045437e-05     4.37897132e-05     4.49228464e-05 
   -8.64085885e-05     4.27138810e-05     2.88688823e-05 
   -9.58142468e-05     3.83574528e-05     1.47531372e-05 
   -1.00723484e-04     3.69701000e-05     4.14113331e-06 
   -1.00722957e-04     3.69708710e-05    -4.14264101e-06 
   -9.58165977e-05     3.83570765e-05    -1.47552298e-05 
   -8.64076189e-05     4.27131521e-05    -2.88717452e-05 
   -7.73215648e-05     4.37791170e-05    -4.49172317e-05 
   -6.46098320e-05     4.70866906e-05    -5.41300053e-05 
   -7.57035303e-05     2.88776461e-05     5.07634807e-05 
   -8.66812449e-05     2.92308503e-05     4.20024887e-05 
   -9.90512381e-05     2.58832056e-05     2.58661042e-05 
   -1.08367935e-04     2.43195560e-05     1.26923646e-05 
   -1.14254246e-04     2.16903292e-05     3.56291314e-06 
   -1.14254104e-04     2.16903890e-05    -3.56699235e-06 
   -1.08367643e-04     2.43185288e-05    -1.26989924e-05 
   -9.90559554e-05     2.58828972e-05    -2.58727541e-05 
   -8.66817077e-05     2.92289142e-05    -4.20042534e-05 
   -7.57106221e-05     2.88725369e-05    -5.07663841e-05 
   -8.31930637e-05     1.45919232e-05     4.62035608e-05 
   -9.52227858e-05     1.46351768e-05     3.85162895e-05 
   -1.08210920e-04     1.32215882e-05     2.39279266e-05 
   -1.19122736e-04     1.09058984e-05     1.09862691e-05 
   -1.25128278e-04     9.59109926e-06     3.22135903e-06 
   -1.25127613e-04     9.59127457e-06    -3.22607392e-06 
   -1.19125535e-04     1.09084184e-05    -1.09948509e-05 
   -1.08210948e-04     1.32225771e-05    -2.39327340e-05 
   -9.52257307e-05     1.46326183e-05    -3.85208340e-05 
   -8.31959661e-05     1.45916196e-05    -4.62070851e-05 
   -8.83720697e-05     3.18647856e-06     4.48098144e-05 
   -1.00365432e-04     4.30287591e-06     3.65584460e-05 
   -1.14133462e-04     3.36516358e-06     2.17407899e-05 
   -1.25004100e-04     3.17559952e-06     9.80778155e-06 
   -1.31239035e-04     2.51663769e-06     2.78156348e-06 
   -1.31239246e-04     2.51955084e-06    -2.78916116e-06 
   -1.25004291e-04     3.17634497e-06    -9.81233431e-06 
   -1.14134743e-04     3.36470441e-06    -2.17458074e-05 
   -1.00367022e-04     4.30303413e-06    -3.65627601e-05 
   -8.83747178e-05     3.18491499e-06    -4.48145290e-05 
   -8.83720697e-05    -3.18647856e-06     4.48098144e-05 
   -1.00365432e-04    -4.30287591e-06     3.65584460e-05 
   -1.14133462e-04    -3.36516358e-06     2.17407899e-05 
   -1.25004100e-04    -3.17559952e-06     9.80778155e-06 
   -1.31239035e-04    -2.51663769e-06     2.78156348e-06 
   -1.31239246e-04    -2.51955084e-06    -2.78916116e-06 
   -1.25004291e-04    -3.17634497e-06    -9.81233431e-06 
   -1.14134743e-04    -3.36470441e-06    -2.17458074e-05 
   -1.00367022e-04    -4.30303413e-06    -3.65627601e-05 
   -8.83747178e-05    -3.18491499e-06    -4.48145290e-05 
   -8.31930637e-05    -1.45919232e-05     4.62035608e-05 
   -9.52227858e-05    -1.46351768e-05     3.85162895e-05 
   -1.08210920e-04    -1.32215882e-05     2.39279266e-05 
   -1.19122736e-04    -1.09058984e-05     1.09862691e-05 
   -1.25128278e-04    -9.59109926e-06     3.22135903e-06 
   -1.25127613e-04    -9.59127457e-06    -3.22607392e-06 
   -1.19125535e-04    -1.09084184e-05    -1.09948509e-05 
   -1.08210948e-04    -1.32225771e-05    -2.39327340e-05 
   -9.52257307e-05    -1.46326183e-05    -3.85208340e-05 
   -8.31959661e-05    -1.45916196e-05    -4.62070851e-05 
   -7.57035303e-05    -2.88776461e-05     5.07634807e-05 
   -8.66812449e-05    -2.92308503e-05     4.20024887e-05 
   -9.90512381e-05    -2.58832056e-05     2.58661042e-05 
   -1.08367935e-04    -2.43195560e-05     1.26923646e-05 
   -1.14254246e-04    -2.16903292e-05     3.56291314e-06 
   -1.14254104e-04    -2.16903890e-05    -3.56699235e-06 
   -1.08367643e-04    -2.43185288e-05    -1.26989924e-05 
   -9.90559554e-05    -2.58828972e-05    -2.58727541e-05 
   -8.66817077e-05    -2.92289142e-05    -4.20042534e-05 
   -7.57106221e-05    -2.88725369e-05    -5.07663841e-05 
   -6.46065414e-05    -4.70862919e-05     5.41324851e-05 
   -7.73045437e-05    -4.37897132e-05     4.49228464e-05 
   -8.64085885e-05    -4.27138810e-05     2.88688823e-05 
   -9.58142468e-05    -3.83574528e-05     1.47531372e-05 
   -1.00723484e-04    -3.69701000e-05     4.14113331e-06 
   -1.00722957e-04    -3.69708710e-05    -4.14264101e-06 
   -9.58165977e-05    -3.83570765e-05    -1.47552298e-05 
   -8.64076189e-05    -4.27131521e-05    -2.88717452e-05 
   -7.73215648e-05    -4.37791170e-05    -4.49172317e-05 
   -6.46098320e-05    -4.70866906e-05    -5.41300053e-05 
   -5.45716047e-05    -5.22529196e-05     5.53311955e-05 
   -6.70099814e-05    -5.43268836e-05     4.69737055e-05 
   -7.60788046e-05    -5.09587283e-05     2.96003460e-05 
   -8.47082339e-05    -4.65630161e-05     1.41161504e-05 
   -8.92909186e-05    -4.52519344e-05     3.77347865e-06 
   -8.92901107e-05    -4.52529186e-05    -3.77205030e-06 
   -8.47107438e-05    -4.65635458e-05    -1.41173227e-05 
   -7.60834924e-05    -5.09601081e-05    -2.96007161e-05 
   -6.70136779e-05    -5.43237379e-05    -4.69745973e-05 
   -5.45342229e-05    -5.22427796e-05    -5.53215378e-05 
   -2.90948464e-05     5.97534717e-05     6.27035990e-05 
   -3.83211027e-05     6.26565617e-05     5.01720385e-05 
   -4.53933758e-05     5.88856728e-05     3.55416912e-05 
   -5.15802825e-05     5.47471329e-05     1.91939555e-05 
   -5.75375531e-05     5.23745976e-05     6.39561714e-06 
   -5.75382401e-05     5.23754091e-05    -6.39737494e-06 
   -5.15811548e-05     5.47476130e-05    -1.91952827e-05 
   -4.53942922e-05     5.88840490e-05    -3.55461579e-05 
   -3.83220875e-05     6.26554453e-05    -5.01750018e-05 
   -2.90707505e-05     5.97515922e-05    -6.27031124e-05 
   -3.87019238e-05     5.02572360e-05     6.25070562e-05 
   -4.79977924e-05     4.85660778e-05     4.85294900e-05 
   -5.56643600e-05     4.68775648e-05     3.60484355e-05 
   -6.24780278e-05     4.31775304e-05     2.01281443e-05 
   -6.93348831e-05     4.11995274e-05     6.90489858e-06 
   -6.93346881e-05     4.12000086e-05    -6.90713740e-06 
   -6.24765557e-05     4.31767792e-05    -2.01313071e-05 
   -5.56679685e-05     4.68764577e-05    -3.60481240e-05 
   -4.80098561e-05     4.85619042e-05    -4.85273956e-05 
   -3.87042996e-05     5.02585308e-05    -6.25068282e-05 
   -4.50121930e-05     3.57286088e-05     5.88732928e-05 
   -5.54372264e-05     3.60211038e-05     4.66980813e-05 
   -6.44478580e-05     3.23898454e-05     3.25309603e-05 
   -7.13171520e-05     3.14910733e-05     1.79961857e-05 
   -7.85629282e-05     2.91555634e-05     5.75151552e-06 
   -7.85617148e-05     2.91559988e-05    -5.75620557e-06 
   -7.13173420e-05     3.14903123e-05    -1.79988177e-05 
   -6.44565045e-05     3.23873668e-05    -3.25336701e-05 
   -5.54399644e-05     3.60172052e-05    -4.66996161e-05 
   -4.50132780e-05     3.57286208e-05    -5.88726521e-05 
   -5.08891417e-05     1.96804737e-05     5.46119896e-05 
   -6.23560710e-05     2.02727397e-05     4.32738431e-05 
   -7.12092768e-05     1.83233368e-05     3.13606183e-05 
   -7.90465638e-05     1.58153798e-05     1.59237189e-05 
   -8.61621996e-05     1.51839907e-05     5.05376127e-06 
   -8.61624239e-05     1.51830152e-05    -5.05811027e-06 
   -7.90485843e-05     1.58173370e-05    -1.59312294e-05 
   -7.12105438e-05     1.83215604e-05    -3.13646438e-05 
   -6.23554277e-05     2.02720472e-05    -4.32769767e-05 
   -5.08913473e-05     1.96786366e-05    -5.46147720e-05 
   -5.67083185e-05     5.80067347e-06     5.22181494e-05 
   -6.88300065e-05     6.65361975e-06     4.10798462e-05 
   -7.82557328e-05     5.59616855e-06     2.94075846e-05 
   -8.60458240e-05     4.88651365e-06     1.56005481e-05 
   -9.31994995e-05     4.46572652e-06     4.71280377e-06 
   -9.31999032e-05     4.46951388e-06    -4.71973212e-06 
   -8.60475049e-05     4.88530109e-06    -1.56047648e-05 
   -7.82575566e-05     5.59662562e-06    -2.94121919e-05 
   -6.88325746e-05     6.65354532e-06    -4.10841989e-05 
   -5.67125705e-05     5.79924568e-06    -5.22220961e-05 
   -5.67083185e-05    -5.80067347e-06     5.22181494e-05 
   -6.88300065e-05    -6.65361975e-06     4.10798462e-05 
   -7.82557328e-05    -5.59616855e-06     2.94075846e-05 
   -8.60458240e-05    -4.88651365e-06     1.56005481e-05 
   -9.31994995e-05    -4.46572652e-06     4.71280377e-06 
   -9.31999032e-05    -4.46951388e-06    -4.71973212e-06 
   -8.60475049e-05    -4.88530109e-06    -1.56047648e-05 
   -7.82575566e-05    -5.59662562e-06    -2.94121919e-05 
   -6.88325746e-05    -6.65354532e-06    -4.10841989e-05 
   -5.67125705e-05    -5.79924568e-06    -5.22220961e-05 
   -5.08891417e-05    -1.96804737e-05     5.46119896e-05 
   -6.23560710e-05    -2.02727397e-05     4.32738431e-05 
   -7.12092768e-05    -1.83233368e-05     3.13606183e-05 
   -7.90465638e-05    -1.58153798e-05     1.59237189e-05 
   -8.61621996e-05    -1.51839907e-05     5.05376127e-06 
   -8.61624239e-05    -1.51830152e-05    -5.05811027e-06 
   -7.90485843e-05    -1.58173370e-05    -1.59312294e-05 
   -7.12105438e-05    -1.83215604e-05    -3.13646438e-05 
   -6.23554277e-05    -2.02720472e-05    -4.32769767e-05 
   -5.08913473e-05    -1.96786366e-05    -5.46147720e-05 
   -4.50121930e-05    -3.57286088e-05     5.88732928e-05 
   -5.54372264e-05    -3.60211038e-05     4.66980813e-05 
   -6.44478580e-05    -3.23898454e-05     3.25309603e-05 
   -7.13171520e-05    -3.14910733e-05     1.79961857e-05 
   -7.85629282e-05    -2.91555634e-05     5.75151552e-06 
   -7.85617148e-05    -2.91559988e-05    -5.75620557e-06 
   -7.13173420e-05    -3.14903123e-05    -1.79988177e-05 
   -6.44565045e-05    -3.23873668e-05    -3.25336701e-05 
   -5.54399644e-05    -3.60172052e-05    -4.66996161e-05 
   -4.50132780e-05    -3.57286208e-05    -5.88726521e-05 
   -3.87019238e-05    -5.02572360e-05     6.25070562e-05 
   -4.79977924e-05    -4.85660778e-05     4.85294900e-05 
   -5.56643600e-05    -4.68775648e-05     3.60484355e-05 
   -6.24780278e-05    -4.31775304e-05     2.01281443e-05 
   -6.93348831e-05    -4.11995274e-05     6.90489858e-06 
   -6.93346881e-05    -4.12000086e-05    -6.90713740e-06 
   -6.24765557e-05    -4.31767792e-05    -2.01313071e-05 
   -5.56679685e-05    -4.68764577e-05    -3.60481240e-05 
   -4.80098561e-05    -4.85619042e-05    -4.85273956e-05 
   -3.87042996e-05    -5.02585308e-05    -6.25068282e-05 
   -2.90948464e-05    -5.97534717e-05     6.27035990e-05 
   -3.83211027e-05    -6.26565617e-05     5.01720385e-05 
   -4.53933758e-05    -5.88856728e-05     3.55416912e-05 
   -5.15802825e-05    -5.47471329e-05     1.91939555e-05 
   -5.75375531e-05    -5.23745976e-05     6.39561714e-06 
   -5.75382401e-05    -5.23754091e-05    -6.39737494e-06 
   -5.15811548e-05    -5.47476130e-05    -1.91952827e-05 
   -4.53942922e-05    -5.88840490e-05    -3.55461579e-05 
   -3.83220875e-05    -6.26554453e-05    -5.01750018e-05 
   -2.90707505e-05    -5.97515922e-05    -6.27031124e-05 
   -1.27296282e-05     5.97811799e-05     6.19320506e-05 
   -2.09198081e-05     6.29750029e-05     5.49146780e-05 
   -2.71777454e-05     5.88166832e-05     3.94679249e-05 
   -3.14235536e-05     5.52234933e-05     2.44341882e-05 
   -3.37125542e-05     5.25519002e-05     9.01086625e-06 
   -3.37129418e-05     5.25522051e-05    -9.01405752e-06 
   -3.14237828e-05     5.52232402e-05    -2.44382302e-05 
   -2.71768962e-05     5.88160423e-05    -3.94723129e-05 
   -2.09203272e-05     6.29744241e-05    -5.49191134e-05 
   -1.27091268e-05     5.97812904e-05    -6.19337749e-05 
   -2.09796313e-05     5.57790348e-05     6.28080118e-05 
   -2.87384622e-05     5.17757693e-05     5.17136895e-05 
   -3.51467537e-05     5.15506261e-05     3.94565153e-05 
   -4.03104104e-05     4.76168881e-05     2.49919696e-05 
   -4.32288558e-05     4.56466566e-05     9.53758520e-06 
   -4.32280461e-05     4.56469639e-05    -9.54073661e-06 
   -4.03121636e-05     4.76159496e-05    -2.49937038e-05 
   -3.51480443e-05     5.15500308e-05    -3.94575588e-05 
   -2.87478702e-05     5.17740066e-05    -5.17146124e-05 
   -2.09789456e-05     5.57820693e-05    -6.28083855e-05 
   -2.74419536e-05     3.99610121e-05     5.86964985e-05 
   -3.54784088e-05     3.94560223e-05     5.16914092e-05 
   -4.25842693e-05     3.58655443e-05     3.58879104e-05 
   -4.76210592e-05     3.50796758e-05     2.29993261e-05 
   -5.08038796e-05     3.29607295e-05     8.62307753e-06 
   -5.08044860e-05     3.29601837e-05    -8.62644753e-06 
   -4.76226215e-05     3.50792524e-05    -2.30020170e-05 
   -4.25898257e-05     3.58646973e-05    -3.58908429e-05 
   -3.54796865e-05     3.94537897e-05    -5.16934733e-05 
   -2.74404671e-05     3.99620184e-05    -5.86968010e-05 
   -3.10912659e-05     2.43474798e-05     5.52260549e-05 
   -4.02348973e-05     2.46416549e-05     4.76081231e-05 
   -4.74308221e-05     2.29720442e-05     3.50696616e-05 
   -5.22660206e-05     2.02642404e-05     2.05415515e-05 
   -5.53613833e-05     2.03837371e-05     8.25162634e-06 
   -5.53620001e-05     2.03841883e-05    -8.25411599e-06 
   -5.22720027e-05     2.02638753e-05    -2.05463642e-05 
   -4.74325463e-05     2.29714005e-05    -3.50732627e-05 
   -4.02366240e-05     2.46403624e-05    -4.76101854e-05 
   -3.10920697e-05     2.43486192e-05    -5.52276892e-05 
   -3.32389851e-05     8.69832704e-06     5.24904383e-05 
   -4.28971132e-05     9.47238399e-06     4.56511696e-05 
   -5.05618282e-05     8.53481406e-06     3.33589609e-05 