# vtk DataFile Version 2.0 
generated by Lattice Boltzmann Method time =   8.66025404e-01
ASCII 
DATASET UNSTRUCTURED_GRID

POINTS   1000 FLOAT 
  0.00000000e+00   0.00000000e+00   0.00000000e+00 
  0.00000000e+00   0.00000000e+00   1.00000000e-01 
  0.00000000e+00   0.00000000e+00   2.00000000e-01 
  0.00000000e+00   0.00000000e+00   3.00000000e-01 
  0.00000000e+00   0.00000000e+00   4.00000000e-01 
  0.00000000e+00   0.00000000e+00   5.00000000e-01 
  0.00000000e+00   0.00000000e+00   6.00000000e-01 
  0.00000000e+00   0.00000000e+00   7.00000000e-01 
  0.00000000e+00   0.00000000e+00   8.00000000e-01 
  0.00000000e+00   0.00000000e+00   9.00000000e-01 
  0.00000000e+00   1.00000000e-01   0.00000000e+00 
  0.00000000e+00   1.00000000e-01   1.00000000e-01 
  0.00000000e+00   1.00000000e-01   2.00000000e-01 
  0.00000000e+00   1.00000000e-01   3.00000000e-01 
  0.00000000e+00   1.00000000e-01   4.00000000e-01 
  0.00000000e+00   1.00000000e-01   5.00000000e-01 
  0.00000000e+00   1.00000000e-01   6.00000000e-01 
  0.00000000e+00   1.00000000e-01   7.00000000e-01 
  0.00000000e+00   1.00000000e-01   8.00000000e-01 
  0.00000000e+00   1.00000000e-01   9.00000000e-01 
  0.00000000e+00   2.00000000e-01   0.00000000e+00 
  0.00000000e+00   2.00000000e-01   1.00000000e-01 
  0.00000000e+00   2.00000000e-01   2.00000000e-01 
  0.00000000e+00   2.00000000e-01   3.00000000e-01 
  0.00000000e+00   2.00000000e-01   4.00000000e-01 
  0.00000000e+00   2.00000000e-01   5.00000000e-01 
  0.00000000e+00   2.00000000e-01   6.00000000e-01 
  0.00000000e+00   2.00000000e-01   7.00000000e-01 
  0.00000000e+00   2.00000000e-01   8.00000000e-01 
  0.00000000e+00   2.00000000e-01   9.00000000e-01 
  0.00000000e+00   3.00000000e-01   0.00000000e+00 
  0.00000000e+00   3.00000000e-01   1.00000000e-01 
  0.00000000e+00   3.00000000e-01   2.00000000e-01 
  0.00000000e+00   3.00000000e-01   3.00000000e-01 
  0.00000000e+00   3.00000000e-01   4.00000000e-01 
  0.00000000e+00   3.00000000e-01   5.00000000e-01 
  0.00000000e+00   3.00000000e-01   6.00000000e-01 
  0.00000000e+00   3.00000000e-01   7.00000000e-01 
  0.00000000e+00   3.00000000e-01   8.00000000e-01 
  0.00000000e+00   3.00000000e-01   9.00000000e-01 
  0.00000000e+00   4.00000000e-01   0.00000000e+00 
  0.00000000e+00   4.00000000e-01   1.00000000e-01 
  0.00000000e+00   4.00000000e-01   2.00000000e-01 
  0.00000000e+00   4.00000000e-01   3.00000000e-01 
  0.00000000e+00   4.00000000e-01   4.00000000e-01 
  0.00000000e+00   4.00000000e-01   5.00000000e-01 
  0.00000000e+00   4.00000000e-01   6.00000000e-01 
  0.00000000e+00   4.00000000e-01   7.00000000e-01 
  0.00000000e+00   4.00000000e-01   8.00000000e-01 
  0.00000000e+00   4.00000000e-01   9.00000000e-01 
  0.00000000e+00   5.00000000e-01   0.00000000e+00 
  0.00000000e+00   5.00000000e-01   1.00000000e-01 
  0.00000000e+00   5.00000000e-01   2.00000000e-01 
  0.00000000e+00   5.00000000e-01   3.00000000e-01 
  0.00000000e+00   5.00000000e-01   4.00000000e-01 
  0.00000000e+00   5.00000000e-01   5.00000000e-01 
  0.00000000e+00   5.00000000e-01   6.00000000e-01 
  0.00000000e+00   5.00000000e-01   7.00000000e-01 
  0.00000000e+00   5.00000000e-01   8.00000000e-01 
  0.00000000e+00   5.00000000e-01   9.00000000e-01 
  0.00000000e+00   6.00000000e-01   0.00000000e+00 
  0.00000000e+00   6.00000000e-01   1.00000000e-01 
  0.00000000e+00   6.00000000e-01   2.00000000e-01 
  0.00000000e+00   6.00000000e-01   3.00000000e-01 
  0.00000000e+00   6.00000000e-01   4.00000000e-01 
  0.00000000e+00   6.00000000e-01   5.00000000e-01 
  0.00000000e+00   6.00000000e-01   6.00000000e-01 
  0.00000000e+00   6.00000000e-01   7.00000000e-01 
  0.00000000e+00   6.00000000e-01   8.00000000e-01 
  0.00000000e+00   6.00000000e-01   9.00000000e-01 
  0.00000000e+00   7.00000000e-01   0.00000000e+00 
  0.00000000e+00   7.00000000e-01   1.00000000e-01 
  0.00000000e+00   7.00000000e-01   2.00000000e-01 
  0.00000000e+00   7.00000000e-01   3.00000000e-01 
  0.00000000e+00   7.00000000e-01   4.00000000e-01 
  0.00000000e+00   7.00000000e-01   5.00000000e-01 
  0.00000000e+00   7.00000000e-01   6.00000000e-01 
  0.00000000e+00   7.00000000e-01   7.00000000e-01 
  0.00000000e+00   7.00000000e-01   8.00000000e-01 
  0.00000000e+00   7.00000000e-01   9.00000000e-01 
  0.00000000e+00   8.00000000e-01   0.00000000e+00 
  0.00000000e+00   8.00000000e-01   1.00000000e-01 
  0.00000000e+00   8.00000000e-01   2.00000000e-01 
  0.00000000e+00   8.00000000e-01   3.00000000e-01 
  0.00000000e+00   8.00000000e-01   4.00000000e-01 
  0.00000000e+00   8.00000000e-01   5.00000000e-01 
  0.00000000e+00   8.00000000e-01   6.00000000e-01 
  0.00000000e+00   8.00000000e-01   7.00000000e-01 
  0.00000000e+00   8.00000000e-01   8.00000000e-01 
  0.00000000e+00   8.00000000e-01   9.00000000e-01 
  0.00000000e+00   9.00000000e-01   0.00000000e+00 
  0.00000000e+00   9.00000000e-01   1.00000000e-01 
  0.00000000e+00   9.00000000e-01   2.00000000e-01 
  0.00000000e+00   9.00000000e-01   3.00000000e-01 
  0.00000000e+00   9.00000000e-01   4.00000000e-01 
  0.00000000e+00   9.00000000e-01   5.00000000e-01 
  0.00000000e+00   9.00000000e-01   6.00000000e-01 
  0.00000000e+00   9.00000000e-01   7.00000000e-01 
  0.00000000e+00   9.00000000e-01   8.00000000e-01 
  0.00000000e+00   9.00000000e-01   9.00000000e-01 
  1.00000000e-01   0.00000000e+00   0.00000000e+00 
  1.00000000e-01   0.00000000e+00   1.00000000e-01 
  1.00000000e-01   0.00000000e+00   2.00000000e-01 
  1.00000000e-01   0.00000000e+00   3.00000000e-01 
  1.00000000e-01   0.00000000e+00   4.00000000e-01 
  1.00000000e-01   0.00000000e+00   5.00000000e-01 
  1.00000000e-01   0.00000000e+00   6.00000000e-01 
  1.00000000e-01   0.00000000e+00   7.00000000e-01 
  1.00000000e-01   0.00000000e+00   8.00000000e-01 
  1.00000000e-01   0.00000000e+00   9.00000000e-01 
  1.00000000e-01   1.00000000e-01   0.00000000e+00 
  1.00000000e-01   1.00000000e-01   1.00000000e-01 
  1.00000000e-01   1.00000000e-01   2.00000000e-01 
  1.00000000e-01   1.00000000e-01   3.00000000e-01 
  1.00000000e-01   1.00000000e-01   4.00000000e-01 
  1.00000000e-01   1.00000000e-01   5.00000000e-01 
  1.00000000e-01   1.00000000e-01   6.00000000e-01 
  1.00000000e-01   1.00000000e-01   7.00000000e-01 
  1.00000000e-01   1.00000000e-01   8.00000000e-01 
  1.00000000e-01   1.00000000e-01   9.00000000e-01 
  1.00000000e-01   2.00000000e-01   0.00000000e+00 
  1.00000000e-01   2.00000000e-01   1.00000000e-01 
  1.00000000e-01   2.00000000e-01   2.00000000e-01 
  1.00000000e-01   2.00000000e-01   3.00000000e-01 
  1.00000000e-01   2.00000000e-01   4.00000000e-01 
  1.00000000e-01   2.00000000e-01   5.00000000e-01 
  1.00000000e-01   2.00000000e-01   6.00000000e-01 
  1.00000000e-01   2.00000000e-01   7.00000000e-01 
  1.00000000e-01   2.00000000e-01   8.00000000e-01 
  1.00000000e-01   2.00000000e-01   9.00000000e-01 
  1.00000000e-01   3.00000000e-01   0.00000000e+00 
  1.00000000e-01   3.00000000e-01   1.00000000e-01 
  1.00000000e-01   3.00000000e-01   2.00000000e-01 
  1.00000000e-01   3.00000000e-01   3.00000000e-01 
  1.00000000e-01   3.00000000e-01   4.00000000e-01 
  1.00000000e-01   3.00000000e-01   5.00000000e-01 
  1.00000000e-01   3.00000000e-01   6.00000000e-01 
  1.00000000e-01   3.00000000e-01   7.00000000e-01 
  1.00000000e-01   3.00000000e-01   8.00000000e-01 
  1.00000000e-01   3.00000000e-01   9.00000000e-01 
  1.00000000e-01   4.00000000e-01   0.00000000e+00 
  1.00000000e-01   4.00000000e-01   1.00000000e-01 
  1.00000000e-01   4.00000000e-01   2.00000000e-01 
  1.00000000e-01   4.00000000e-01   3.00000000e-01 
  1.00000000e-01   4.00000000e-01   4.00000000e-01 
  1.00000000e-01   4.00000000e-01   5.00000000e-01 
  1.00000000e-01   4.00000000e-01   6.00000000e-01 
  1.00000000e-01   4.00000000e-01   7.00000000e-01 
  1.00000000e-01   4.00000000e-01   8.00000000e-01 
  1.00000000e-01   4.00000000e-01   9.00000000e-01 
  1.00000000e-01   5.00000000e-01   0.00000000e+00 
  1.00000000e-01   5.00000000e-01   1.00000000e-01 
  1.00000000e-01   5.00000000e-01   2.00000000e-01 
  1.00000000e-01   5.00000000e-01   3.00000000e-01 
  1.00000000e-01   5.00000000e-01   4.00000000e-01 
  1.00000000e-01   5.00000000e-01   5.00000000e-01 
  1.00000000e-01   5.00000000e-01   6.00000000e-01 
  1.00000000e-01   5.00000000e-01   7.00000000e-01 
  1.00000000e-01   5.00000000e-01   8.00000000e-01 
  1.00000000e-01   5.00000000e-01   9.00000000e-01 
  1.00000000e-01   6.00000000e-01   0.00000000e+00 
  1.00000000e-01   6.00000000e-01   1.00000000e-01 
  1.00000000e-01   6.00000000e-01   2.00000000e-01 
  1.00000000e-01   6.00000000e-01   3.00000000e-01 
  1.00000000e-01   6.00000000e-01   4.00000000e-01 
  1.00000000e-01   6.00000000e-01   5.00000000e-01 
  1.00000000e-01   6.00000000e-01   6.00000000e-01 
  1.00000000e-01   6.00000000e-01   7.00000000e-01 
  1.00000000e-01   6.00000000e-01   8.00000000e-01 
  1.00000000e-01   6.00000000e-01   9.00000000e-01 
  1.00000000e-01   7.00000000e-01   0.00000000e+00 
  1.00000000e-01   7.00000000e-01   1.00000000e-01 
  1.00000000e-01   7.00000000e-01   2.00000000e-01 
  1.00000000e-01   7.00000000e-01   3.00000000e-01 
  1.00000000e-01   7.00000000e-01   4.00000000e-01 
  1.00000000e-01   7.00000000e-01   5.00000000e-01 
  1.00000000e-01   7.00000000e-01   6.00000000e-01 
  1.00000000e-01   7.00000000e-01   7.00000000e-01 
  1.00000000e-01   7.00000000e-01   8.00000000e-01 
  1.00000000e-01   7.00000000e-01   9.00000000e-01 
  1.00000000e-01   8.00000000e-01   0.00000000e+00 
  1.00000000e-01   8.00000000e-01   1.00000000e-01 
  1.00000000e-01   8.00000000e-01   2.00000000e-01 
  1.00000000e-01   8.00000000e-01   3.00000000e-01 
  1.00000000e-01   8.00000000e-01   4.00000000e-01 
  1.00000000e-01   8.00000000e-01   5.00000000e-01 
  1.00000000e-01   8.00000000e-01   6.00000000e-01 
  1.00000000e-01   8.00000000e-01   7.00000000e-01 
  1.00000000e-01   8.00000000e-01   8.00000000e-01 
[...]
POINT_DATA   1000
FIELD solution 1
u 3   1000 DOUBLE
   -1.70859056e-04     8.27496942e-05     8.27821742e-05 
   -1.85890856e-04     7.93620158e-05     6.86189752e-05 
   -1.97670879e-04     7.51424843e-05     5.53702163e-05 
   -2.07726650e-04     7.30597195e-05     4.05050657e-05 
   -2.14329297e-04     7.06079882e-05     1.46537917e-05 
   -2.14329450e-04     7.06092784e-05    -1.46633316e-05 
   -2.07727183e-04     7.30587454e-05    -4.05138793e-05 
   -1.97673927e-04     7.51438561e-05    -5.53747812e-05 
   -1.85895931e-04     7.93597036e-05    -6.86279198e-05 
   -1.70743902e-04     8.26992148e-05    -8.27757793e-05 
   -1.83748472e-04     6.97746692e-05     7.92766373e-05 
   -1.96161858e-04     6.51769423e-05     6.40624100e-05 
   -2.09701600e-04     6.36386474e-05     5.26679855e-05 
   -2.20839508e-04     6.14217911e-05     3.92872397e-05 
   -2.27634703e-04     5.99263272e-05     1.54496482e-05 
   -2.27634901e-04     5.99251954e-05    -1.54611746e-05 
   -2.20840433e-04     6.14224598e-05    -3.92955456e-05 
   -2.09704682e-04     6.36371657e-05    -5.26770171e-05 
   -1.96161584e-04     6.52060662e-05    -6.40965918e-05 
   -1.83754661e-04     6.97762871e-05    -7.92795067e-05 
   -1.95938387e-04     5.85276380e-05     7.43621321e-05 
   -2.09460652e-04     5.39813093e-05     6.31847656e-05 
   -2.23658443e-04     5.31698553e-05     5.24379089e-05 
   -2.35058166e-04     5.19098077e-05     3.96616879e-05 
   -2.42322200e-04     5.11454117e-05     1.51422628e-05 
   -2.42322306e-04     5.11466428e-05    -1.51531267e-05 
   -2.35058764e-04     5.19085276e-05    -3.96719505e-05 
   -2.23658237e-04     5.31929681e-05    -5.24670025e-05 
   -2.09464167e-04     5.39850448e-05    -6.31894563e-05 
   -1.95942559e-04     5.85283412e-05    -7.43696261e-05 
   -2.06076572e-04     4.14535771e-05     7.23824933e-05 
   -2.20276184e-04     3.98195800e-05     6.06983886e-05 
   -2.34775518e-04     3.99125648e-05     5.13668043e-05 
   -2.46588997e-04     3.91319718e-05     3.87540393e-05 
   -2.54478984e-04     3.87942173e-05     1.55207289e-05 
   -2.54479181e-04     3.87937652e-05    -1.55314951e-05 
   -2.46588761e-04     3.91566667e-05    -3.87838384e-05 
   -2.34776901e-04     3.99173157e-05    -5.13720277e-05 
   -2.20278118e-04     3.98231928e-05    -6.07042851e-05 
   -2.06078588e-04     4.14594730e-05    -7.23876980e-05 
   -2.12749250e-04     1.54879151e-05     7.00262703e-05 
   -2.26931940e-04     1.56151384e-05     5.93070887e-05 
   -2.41855594e-04     1.54752034e-05     5.05117851e-05 
   -2.54316699e-04     1.56077268e-05     3.85052155e-05 
   -2.61533020e-04     1.53672367e-05     1.51783796e-05 
   -2.61532978e-04     1.53920695e-05    -1.52121010e-05 
   -2.54317509e-04     1.56109116e-05    -3.85116225e-05 
   -2.41857156e-04     1.54773676e-05    -5.05191872e-05 
   -2.26934084e-04     1.56188171e-05    -5.93127154e-05 
   -2.12751791e-04     1.54905633e-05    -7.00316607e-05 
   -2.12749250e-04    -1.54879151e-05     7.00262703e-05 
   -2.26931940e-04    -1.56151384e-05     5.93070887e-05 
   -2.41855594e-04    -1.54752034e-05     5.05117851e-05 
   -2.54316699e-04    -1.56077268e-05     3.85052155e-05 
   -2.61533020e-04    -1.53672367e-05     1.51783796e-05 
   -2.61532978e-04    -1.53920695e-05    -1.52121010e-05 
   -2.54317509e-04    -1.56109116e-05    -3.85116225e-05 
   -2.41857156e-04    -1.54773676e-05    -5.05191872e-05 
   -2.26934084e-04    -1.56188171e-05    -5.93127154e-05 
   -2.12751791e-04    -1.54905633e-05    -7.00316607e-05 
   -2.06076572e-04    -4.14535771e-05     7.23824933e-05 
   -2.20276184e-04    -3.98195800e-05     6.06983886e-05 
   -2.34775518e-04    -3.99125648e-05     5.13668043e-05 
   -2.46588997e-04    -3.91319718e-05     3.87540393e-05 
   -2.54478984e-04    -3.87942173e-05     1.55207289e-05 
   -2.54479181e-04    -3.87937652e-05    -1.55314951e-05 
   -2.46588761e-04    -3.91566667e-05    -3.87838384e-05 
   -2.34776901e-04    -3.99173157e-05    -5.13720277e-05 
   -2.20278118e-04    -3.98231928e-05    -6.07042851e-05 
   -2.06078588e-04    -4.14594730e-05    -7.23876980e-05 
   -1.95938387e-04    -5.85276380e-05     7.43621321e-05 
   -2.09460652e-04    -5.39813093e-05     6.31847656e-05 
   -2.23658443e-04    -5.31698553e-05     5.24379089e-05 
   -2.35058166e-04    -5.19098077e-05     3.96616879e-05 
   -2.42322200e-04    -5.11454117e-05     1.51422628e-05 
   -2.42322306e-04    -5.11466428e-05    -1.51531267e-05 
   -2.35058764e-04    -5.19085276e-05    -3.96719505e-05 
   -2.23658237e-04    -5.31929681e-05    -5.24670025e-05 
   -2.09464167e-04    -5.39850448e-05    -6.31894563e-05 
   -1.95942559e-04    -5.85283412e-05    -7.43696261e-05 
   -1.83748472e-04    -6.97746692e-05     7.92766373e-05 
   -1.96161858e-04    -6.51769423e-05     6.40624100e-05 
   -2.09701600e-04    -6.36386474e-05     5.26679855e-05 
   -2.20839508e-04    -6.14217911e-05     3.92872397e-05 
   -2.27634703e-04    -5.99263272e-05     1.54496482e-05 
   -2.27634901e-04    -5.99251954e-05    -1.54611746e-05 
   -2.20840433e-04    -6.14224598e-05    -3.92955456e-05 
   -2.09704682e-04    -6.36371657e-05    -5.26770171e-05 
   -1.96161584e-04    -6.52060662e-05    -6.40965918e-05 
   -1.83754661e-04    -6.97762871e-05    -7.92795067e-05 
   -1.70859056e-04    -8.27496942e-05     8.27821742e-05 
   -1.85890856e-04    -7.93620158e-05     6.86189752e-05 
   -1.97670879e-04    -7.51424843e-05     5.53702163e-05 
   -2.07726650e-04    -7.30597195e-05     4.05050657e-05 
   -2.14329297e-04    -7.06079882e-05     1.46537917e-05 
   -2.14329450e-04    -7.06092784e-05    -1.46633316e-05 
   -2.07727183e-04    -7.30587454e-05    -4.05138793e-05 
   -1.97673927e-04    -7.51438561e-05    -5.53747812e-05 
   -1.85895931e-04    -7.93597036e-05    -6.86279198e-05 
   -1.70743902e-04    -8.26992148e-05    -8.27757793e-05 
   -1.32366240e-04     8.28691168e-05     8.50149773e-05 
   -1.44628653e-04     8.15464555e-05     7.58615363e-05 
   -1.55914989e-04     7.71182057e-05     6.38469348e-05 
   -1.62439524e-04     7.50589275e-05     4.60001802e-05 
   -1.64835180e-04     7.30931359e-05     1.70768522e-05 
   -1.64836055e-04     7.30936157e-05    -1.70787056e-05 
   -1.62440254e-04     7.50589886e-05    -4.60002806e-05 
   -1.55919171e-04     7.71200010e-05    -6.38432456e-05 
   -1.44629084e-04     8.15446274e-05    -7.58612686e-05 
   -1.32335036e-04     8.28634635e-05    -8.50095679e-05 
   -1.43894466e-04     7.60188735e-05     8.16108518e-05 
   -1.58238508e-04     7.37865049e-05     7.30459485e-05 
   -1.68771903e-04     7.32634799e-05     6.19234312e-05 
   -1.76849112e-04     7.17452320e-05     4.44988568e-05 
   -1.79446746e-04     7.04369253e-05     1.75702410e-05 
   -1.79447437e-04     7.04359257e-05    -1.75725874e-05 
   -1.76850168e-04     7.17457698e-05    -4.44988640e-05 
   -1.68771030e-04     7.32623514e-05    -6.19251997e-05 
   -1.58250048e-04     7.37790802e-05    -7.30396392e-05 
   -1.43898126e-04     7.60165750e-05    -8.16108466e-05 
   -1.53941904e-04     6.52226866e-05     7.69036620e-05 
   -1.68183107e-04     6.23121696e-05     7.35075293e-05 
   -1.80197602e-04     6.02931872e-05     5.99981829e-05 
   -1.87848084e-04     6.02257291e-05     4.50702765e-05 
   -1.90692497e-04     6.00016577e-05     1.71493111e-05 
   -1.90693258e-04     6.00025574e-05    -1.71521442e-05 
   -1.87846988e-04     6.02245169e-05    -4.50742282e-05 
   -1.80202068e-04     6.02927425e-05    -6.00002473e-05 
   -1.68182291e-04     6.23113439e-05    -7.35097984e-05 
   -1.53946903e-04     6.52181435e-05    -7.69088748e-05 
   -1.61269792e-04     4.61306834e-05     7.49363709e-05 
   -1.76406365e-04     4.48319369e-05     7.16045809e-05 
   -1.87598080e-04     4.50841017e-05     6.01508380e-05 
   -1.96703415e-04     4.42434313e-05     4.40844400e-05 
   -1.99177042e-04     4.46329680e-05     1.76932062e-05 
   -1.99175846e-04     4.46325610e-05    -1.76973296e-05 
   -1.96706429e-04     4.42466130e-05    -4.40895196e-05 
   -1.87597570e-04     4.50855788e-05    -6.01525611e-05 
   -1.76408853e-04     4.48305607e-05    -7.16073276e-05 
   -1.61272992e-04     4.61298289e-05    -7.49399258e-05 
   -1.63476807e-04     1.72573618e-05     7.30154319e-05 
   -1.78731335e-04     1.73908369e-05     7.04848074e-05 
   -1.90288161e-04     1.73510874e-05     5.98218683e-05 
   -1.99120848e-04     1.76119473e-05     4.46530090e-05 
   -2.01801016e-04     1.71390709e-05     1.71387733e-05 
   -2.01802380e-04     1.71440394e-05    -1.71475783e-05 
   -1.99119655e-04     1.76138031e-05    -4.46558390e-05 
   -1.90288849e-04     1.73514953e-05    -5.98252957e-05 
   -1.78732198e-04     1.73914628e-05    -7.04873638e-05 
   -1.63478478e-04     1.72582801e-05    -7.30183945e-05 
   -1.63476807e-04    -1.72573618e-05     7.30154319e-05 
   -1.78731335e-04    -1.73908369e-05     7.04848074e-05 
   -1.90288161e-04    -1.73510874e-05     5.98218683e-05 
   -1.99120848e-04    -1.76119473e-05     4.46530090e-05 
   -2.01801016e-04    -1.71390709e-05     1.71387733e-05 
   -2.01802380e-04    -1.71440394e-05    -1.71475783e-05 
   -1.99119655e-04    -1.76138031e-05    -4.46558390e-05 
   -1.90288849e-04    -1.73514953e-05    -5.98252957e-05 
   -1.78732198e-04    -1.73914628e-05    -7.04873638e-05 
   -1.63478478e-04    -1.72582801e-05    -7.30183945e-05 
   -1.61269792e-04    -4.61306834e-05     7.49363709e-05 
   -1.76406365e-04    -4.48319369e-05     7.16045809e-05 
   -1.87598080e-04    -4.50841017e-05     6.01508380e-05 
   -1.96703415e-04    -4.42434313e-05     4.40844400e-05 
   -1.99177042e-04    -4.46329680e-05     1.76932062e-05 
   -1.99175846e-04    -4.46325610e-05    -1.76973296e-05 
   -1.96706429e-04    -4.42466130e-05    -4.40895196e-05 
   -1.87597570e-04    -4.50855788e-05    -6.01525611e-05 
   -1.76408853e-04    -4.48305607e-05    -7.16073276e-05 
   -1.61272992e-04    -4.61298289e-05    -7.49399258e-05 
   -1.53941904e-04    -6.52226866e-05     7.69036620e-05 
   -1.68183107e-04    -6.23121696e-05     7.35075293e-05 
   -1.80197602e-04    -6.02931872e-05     5.99981829e-05 
   -1.87848084e-04    -6.02257291e-05     4.50702765e-05 
   -1.90692497e-04    -6.00016577e-05     1.71493111e-05 
   -1.90693258e-04    -6.00025574e-05    -1.71521442e-05 
   -1.87846988e-04    -6.02245169e-05    -4.50742282e-05 
   -1.80202068e-04    -6.02927425e-05    -6.00002473e-05 
   -1.68182291e-04    -6.23113439e-05    -7.35097984e-05 
   -1.53946903e-04    -6.52181435e-05    -7.69088748e-05 
   -1.43894466e-04    -7.60188735e-05     8.16108518e-05 
   -1.58238508e-04    -7.37865049e-05     7.30459485e-05 
   -1.68771903e-04    -7.32634799e-05     6.19234312e-05 
   -1.76849112e-04    -7.17452320e-05     4.44988568e-05 
   -1.79446746e-04    -7.04369253e-05     1.75702410e-05 
   -1.79447437e-04    -7.04359257e-05    -1.75725874e-05 
   -1.76850168e-04    -7.17457698e-05    -4.44988640e-05 
   -1.68771030e-04    -7.32623514e-05    -6.19251997e-05 
   -1.58250048e-04    -7.37790802e-05    -7.30396392e-05 
   -1.43898126e-04    -7.60165750e-05    -8.16108466e-05 
   -1.32366240e-04    -8.28691168e-05     8.50149773e-05 
   -1.44628653e-04    -8.15464555e-05     7.58615363e-05 
   -1.55914989e-04    -7.71182057e-05     6.38469348e-05 
   -1.62439524e-04    -7.50589275e-05     4.60001802e-05 
   -1.64835180e-04    -7.30931359e-05     1.70768522e-05 
   -1.64836055e-04    -7.30936157e-05    -1.70787056e-05 
   -1.62440254e-04    -7.50589886e-05    -4.60002806e-05 
   -1.55919171e-04    -7.71200010e-05    -6.38432456e-05 
   -1.44629084e-04    -8.15446274e-05    -7.58612686e-05 
   -1.32335036e-04    -8.28634635e-05    -8.50095679e-05 
   -9.63007976e-05     9.80075389e-05     9.80989186e-05 
   -1.09283804e-04     9.89611163e-05     8.79332901e-05 
   -1.14108976e-04     9.47744525e-05     7.37571594e-05 
   -1.17175308e-04     9.26535738e-05     5.00829655e-05 
   -1.18147882e-04     9.13466235e-05     1.75073152e-05 
   -1.18148348e-04     9.13470450e-05    -1.75091675e-05 
   -1.17176168e-04     9.26533156e-05    -5.00849027e-05 
   -1.14108545e-04     9.47727847e-05    -7.37608114e-05 
   -1.09282272e-04     9.89599034e-05    -8.79365818e-05 
   -9.62718591e-05     9.80058749e-05    -9.80983334e-05 
   -1.07573166e-04     8.83035418e-05     9.88402795e-05 
   -1.20630580e-04     8.61643329e-05     8.62888563e-05 
   -1.25814254e-04     8.54204687e-05     7.21670886e-05 
   -1.29049442e-04     8.41162312e-05     4.90980952e-05 
   -1.30176765e-04     8.38869723e-05     1.77862187e-05 
   -1.30176067e-04     8.38863623e-05    -1.77878141e-05 
   -1.29047909e-04     8.41154308e-05    -4.91008268e-05 
   -1.25816520e-04     8.54193303e-05    -7.21664919e-05 
   -1.20640323e-04     8.61620976e-05    -8.62884377e-05 
   -1.07572132e-04     8.83060078e-05    -9.88411047e-05 
   -1.12702099e-04     7.48388721e-05     9.47983297e-05 
   -1.25710562e-04     7.23483424e-05     8.54308434e-05 
   -1.32165016e-04     7.02487062e-05     7.02574292e-05 
   -1.35049071e-04     7.10011990e-05     4.89312644e-05 
   -1.36375631e-04     7.10454715e-05     1.74438084e-05 
   -1.36374004e-04     7.10457132e-05    -1.74470749e-05 
   -1.35049612e-04     7.10009175e-05    -4.89319023e-05 
   -1.32173927e-04     7.02469814e-05    -7.02579357e-05 
   -1.25713852e-04     7.23459478e-05    -8.54322636e-05 
   -1.12703795e-04     7.48402361e-05    -9.47993668e-05 
   -1.15933406e-04     5.04427175e-05     9.26741714e-05 
   -1.28602930e-04     4.90525881e-05     8.42531548e-05 
   -1.34729902e-04     4.89085674e-05     7.11618623e-05 
   -1.38766033e-04     4.83676244e-05     4.83461274e-05 
   -1.39679405e-04     4.88165585e-05     1.78171271e-05 
   -1.39679552e-04     4.88160995e-05    -1.78199727e-05 
   -1.38767180e-04     4.83705492e-05    -4.83507819e-05 
   -1.34730775e-04     4.89075138e-05    -7.11640264e-05 
   -1.28602283e-04     4.90539056e-05    -8.42547380e-05 
   -1.15935649e-04     5.04435190e-05    -9.26767882e-05 
   -1.17067972e-04     1.77856210e-05     9.13978870e-05 
   -1.29745436e-04     1.78047590e-05     8.39407762e-05 
   -1.36101572e-04     1.76365910e-05     7.10931770e-05 
   -1.39615960e-04     1.77680416e-05     4.88229869e-05 
   -1.41113800e-04     1.77279203e-05     1.76347269e-05 
   -1.41112661e-04     1.77321246e-05    -1.76412961e-05 
   -1.39614634e-04     1.77673662e-05    -4.88253495e-05 
   -1.36099664e-04     1.76377632e-05    -7.10959053e-05 
   -1.29745502e-04     1.78051651e-05    -8.39432596e-05 
   -1.17069294e-04     1.77854950e-05    -9.14005050e-05 
   -1.17067972e-04    -1.77856210e-05     9.13978870e-05 
   -1.29745436e-04    -1.78047590e-05     8.39407762e-05 
   -1.36101572e-04    -1.76365910e-05     7.10931770e-05 
   -1.39615960e-04    -1.77680416e-05     4.88229869e-05 
   -1.41113800e-04    -1.77279203e-05     1.76347269e-05 
   -1.41112661e-04    -1.77321246e-05    -1.76412961e-05 
   -1.39614634e-04    -1.77673662e-05    -4.88253495e-05 
   -1.36099664e-04    -1.76377632e-05    -7.10959053e-05 
   -1.29745502e-04    -1.78051651e-05    -8.39432596e-05 
   -1.17069294e-04    -1.77854950e-05    -9.14005050e-05 
   -1.15933406e-04    -5.04427175e-05     9.26741714e-05 
   -1.28602930e-04    -4.90525881e-05     8.42531548e-05 
   -1.34729902e-04    -4.89085674e-05     7.11618623e-05 
   -1.38766033e-04    -4.83676244e-05     4.83461274e-05 
   -1.39679405e-04    -4.88165585e-05     1.78171271e-05 
   -1.39679552e-04    -4.88160995e-05    -1.78199727e-05 
   -1.38767180e-04    -4.83705492e-05    -4.83507819e-05 
   -1.34730775e-04    -4.89075138e-05    -7.11640264e-05 
   -1.28602283e-04    -4.90539056e-05    -8.42547380e-05 
   -1.15935649e-04    -5.04435190e-05    -9.26767882e-05 
   -1.12702099e-04    -7.48388721e-05     9.47983297e-05 
   -1.25710562e-04    -7.23483424e-05     8.54308434e-05 
   -1.32165016e-04    -7.02487062e-05     7.02574292e-05 
   -1.35049071e-04    -7.10011990e-05     4.89312644e-05 
   -1.36375631e-04    -7.10454715e-05     1.74438084e-05 
   -1.36374004e-04    -7.10457132e-05    -1.74470749e-05 
   -1.35049612e-04    -7.10009175e-05    -4.89319023e-05 
   -1.32173927e-04    -7.02469814e-05    -7.02579357e-05 
   -1.25713852e-04    -7.23459478e-05    -8.54322636e-05 
   -1.12703795e-04    -7.48402361e-05    -9.47993668e-05 
   -1.07573166e-04    -8.83035418e-05     9.88402795e-05 
   -1.20630580e-04    -8.61643329e-05     8.62888563e-05 
   -1.25814254e-04    -8.54204687e-05     7.21670886e-05 
   -1.29049442e-04    -8.41162312e-05     4.90980952e-05 
   -1.30176765e-04    -8.38869723e-05     1.77862187e-05 
   -1.30176067e-04    -8.38863623e-05    -1.77878141e-05 
   -1.29047909e-04    -8.41154308e-05    -4.91008268e-05 
   -1.25816520e-04    -8.54193303e-05    -7.21664919e-05 
   -1.20640323e-04    -8.61620976e-05    -8.62884377e-05 
   -1.07572132e-04    -8.83060078e-05    -9.88411047e-05 
   -9.63007976e-05    -9.80075389e-05     9.80989186e-05 
   -1.09283804e-04    -9.89611163e-05     8.79332901e-05 
   -1.14108976e-04    -9.47744525e-05     7.37571594e-05 
   -1.17175308e-04    -9.26535738e-05     5.00829655e-05 
   -1.18147882e-04    -9.13466235e-05     1.75073152e-05 
   -1.18148348e-04    -9.13470450e-05    -1.75091675e-05 
   -1.17176168e-04    -9.26533156e-05    -5.00849027e-05 
   -1.14108545e-04    -9.47727847e-05    -7.37608114e-05 
   -1.09282272e-04    -9.89599034e-05    -8.79365818e-05 
   -9.62718591e-05    -9.80058749e-05    -9.80983334e-05 
   -6.48029245e-05     1.13214858e-04     1.12540911e-04 
   -7.09898338e-05     1.14054361e-04     9.93389219e-05 
   -7.38882184e-05     1.11063214e-04     7.70002928e-05 
   -7.35836404e-05     1.08728371e-04     5.10715681e-05 
   -7.39106889e-05     1.07854306e-04     1.83607399e-05 
   -7.39107600e-05     1.07853967e-04    -1.83633117e-05 
   -7.35817207e-05     1.08727416e-04    -5.10745261e-05 
   -7.38873773e-05     1.11062530e-04    -7.70043735e-05 
   -7.09895410e-05     1.14054517e-04    -9.93418969e-05 
   -6.47859766e-05     1.13216205e-04    -1.12544016e-04 
   -7.01518646e-05     9.98104677e-05     1.14009711e-04 
   -7.62071169e-05     9.68721101e-05     9.67413178e-05 
   -7.84463464e-05     9.69756902e-05     7.61257415e-05 
   -7.79508012e-05     9.55814694e-05     4.99292391e-05 
   -7.83990549e-05     9.56326178e-05     1.87436398e-05 
   -7.83977630e-05     9.56323546e-05    -1.87462414e-05 
   -7.79512371e-05     9.55807465e-05    -4.99290291e-05 
   -7.84476341e-05     9.69750413e-05    -7.61265901e-05 
   -7.62163695e-05     9.68711666e-05    -9.67417451e-05 
   -7.01525035e-05     9.98122265e-05    -1.14012021e-04 
   -7.29702463e-05     7.78641254e-05     1.11058371e-04 
   -7.81932030e-05     7.62239130e-05     9.70596329e-05 
   -8.15031514e-05     7.46495311e-05     7.48209295e-05 
   -8.10240071e-05     7.49638435e-05     5.03607990e-05 
   -8.13990855e-05     7.52234160e-05     1.81966319e-05 
   -8.13992274e-05     7.52229910e-05    -1.81985014e-05 
   -8.10239321e-05     7.49634606e-05    -5.03614619e-05 
   -8.15080200e-05     7.46490288e-05    -7.48222304e-05 
   -7.81947497e-05     7.62232155e-05    -9.70610072e-05 
   -7.29700838e-05     7.78667768e-05    -1.11060339e-04 
   -7.28074081e-05     5.15961780e-05     1.08846985e-04 
   -7.77544066e-05     4.99845355e-05     9.57827340e-05 
   -8.09904338e-05     5.02808977e-05     7.50189902e-05 
   -8.12487440e-05     4.97560292e-05     4.97882924e-05 
   -8.13730183e-05     5.02001719e-05     1.87472454e-05 
   -8.13726818e-05     5.02002700e-05    -1.87491152e-05 
   -8.12494362e-05     4.97558370e-05    -4.97902513e-05 
   -8.09906922e-05     5.02798415e-05    -7.50204342e-05 
   -7.77555392e-05     4.99831172e-05    -9.57839240e-05 
   -7.28071876e-05     5.15974131e-05    -1.08848649e-04 
   -7.29619744e-05     1.86213768e-05     1.08005664e-04 
   -7.80735481e-05     1.87591740e-05     9.57783716e-05 
   -8.11548051e-05     1.81998587e-05     7.51967793e-05 