# vtk DataFile Version 2.0 
generated by Lattice Boltzmann Method time =   1.78978583e+00
ASCII 
DATASET UNSTRUCTURED_GRID

POINTS   1000 FLOAT 
  0.00000000e+00   0.00000000e+00   0.00000000e+00 
  0.00000000e+00   0.00000000e+00   1.00000000e-01 
  0.00000000e+00   0.00000000e+00   2.00000000e-01 
  0.00000000e+00   0.00000000e+00   3.00000000e-01 
  0.00000000e+00   0.00000000e+00   4.00000000e-01 
  0.00000000e+00   0.00000000e+00   5.00000000e-01 
  0.00000000e+00   0.00000000e+00   6.00000000e-01 
  0.00000000e+00   0.00000000e+00   7.00000000e-01 
  0.00000000e+00   0.00000000e+00   8.00000000e-01 
  0.00000000e+00   0.00000000e+00   9.00000000e-01 
  0.00000000e+00   1.00000000e-01   0.00000000e+00 
  0.00000000e+00   1.00000000e-01   1.00000000e-01 
  0.00000000e+00   1.00000000e-01   2.00000000e-01 
  0.00000000e+00   1.00000000e-01   3.00000000e-01 
  0.00000000e+00   1.00000000e-01   4.00000000e-01 
  0.00000000e+00   1.00000000e-01   5.00000000e-01 
  0.00000000e+00   1.00000000e-01   6.00000000e-01 
  0.00000000e+00   1.00000000e-01   7.00000000e-01 
  0.00000000e+00   1.00000000e-01   8.00000000e-01 
  0.00000000e+00   1.00000000e-01   9.00000000e-01 
  0.00000000e+00   2.00000000e-01   0.00000000e+00 
  0.00000000e+00   2.00000000e-01   1.00000000e-01 
  0.00000000e+00   2.00000000e-01   2.00000000e-01 
  0.00000000e+00   2.00000000e-01   3.00000000e-01 
  0.00000000e+00   2.00000000e-01   4.00000000e-01 
  0.00000000e+00   2.00000000e-01   5.00000000e-01 
  0.00000000e+00   2.00000000e-01   6.00000000e-01 
  0.00000000e+00   2.00000000e-01   7.00000000e-01 
  0.00000000e+00   2.00000000e-01   8.00000000e-01 
  0.00000000e+00   2.00000000e-01   9.00000000e-01 
  0.00000000e+00   3.00000000e-01   0.00000000e+00 
  0.00000000e+00   3.00000000e-01   1.00000000e-01 
  0.00000000e+00   3.00000000e-01   2.00000000e-01 
  0.00000000e+00   3.00000000e-01   3.00000000e-01 
  0.00000000e+00   3.00000000e-01   4.00000000e-01 
  0.00000000e+00   3.00000000e-01   5.00000000e-01 
  0.00000000e+00   3.00000000e-01   6.00000000e-01 
  0.00000000e+00   3.00000000e-01   7.00000000e-01 
  0.00000000e+00   3.00000000e-01   8.00000000e-01 
  0.00000000e+00   3.00000000e-01   9.00000000e-01 
  0.00000000e+00   4.00000000e-01   0.00000000e+00 
  0.00000000e+00   4.00000000e-01   1.00000000e-01 
  0.00000000e+00   4.00000000e-01   2.00000000e-01 
  0.00000000e+00   4.00000000e-01   3.00000000e-01 
  0.00000000e+00   4.00000000e-01   4.00000000e-01 
  0.00000000e+00   4.00000000e-01   5.00000000e-01 
  0.00000000e+00   4.00000000e-01   6.00000000e-01 
  0.00000000e+00   4.00000000e-01   7.00000000e-01 
  0.00000000e+00   4.00000000e-01   8.00000000e-01 
  0.00000000e+00   4.00000000e-01   9.00000000e-01 
  0.00000000e+00   5.00000000e-01   0.00000000e+00 
  0.00000000e+00   5.00000000e-01   1.00000000e-01 
  0.00000000e+00   5.00000000e-01   2.00000000e-01 
  0.00000000e+00   5.00000000e-01   3.00000000e-01 
  0.00000000e+00   5.00000000e-01   4.00000000e-01 
  0.00000000e+00   5.00000000e-01   5.00000000e-01 
  0.00000000e+00   5.00000000e-01   6.00000000e-01 
  0.00000000e+00   5.00000000e-01   7.00000000e-01 
  0.00000000e+00   5.00000000e-01   8.00000000e-01 
  0.00000000e+00   5.00000000e-01   9.00000000e-01 
  0.00000000e+00   6.00000000e-01   0.00000000e+00 
  0.00000000e+00   6.00000000e-01   1.00000000e-01 
  0.00000000e+00   6.00000000e-01   2.00000000e-01 
  0.00000000e+00   6.00000000e-01   3.00000000e-01 
  0.00000000e+00   6.00000000e-01   4.00000000e-01 
  0.00000000e+00   6.00000000e-01   5.00000000e-01 
  0.00000000e+00   6.00000000e-01   6.00000000e-01 
  0.00000000e+00   6.00000000e-01   7.00000000e-01 
  0.00000000e+00   6.00000000e-01   8.00000000e-01 
  0.00000000e+00   6.00000000e-01   9.00000000e-01 
  0.00000000e+00   7.00000000e-01   0.00000000e+00 
  0.00000000e+00   7.00000000e-01   1.00000000e-01 
  0.00000000e+00   7.00000000e-01   2.00000000e-01 
  0.00000000e+00   7.00000000e-01   3.00000000e-01 
  0.00000000e+00   7.00000000e-01   4.00000000e-01 
  0.00000000e+00   7.00000000e-01   5.00000000e-01 
  0.00000000e+00   7.00000000e-01   6.00000000e-01 
  0.00000000e+00   7.00000000e-01   7.00000000e-01 
  0.00000000e+00   7.00000000e-01   8.00000000e-01 
  0.00000000e+00   7.00000000e-01   9.00000000e-01 
  0.00000000e+00   8.00000000e-01   0.00000000e+00 
  0.00000000e+00   8.00000000e-01   1.00000000e-01 
  0.00000000e+00   8.00000000e-01   2.00000000e-01 
  0.00000000e+00   8.00000000e-01   3.00000000e-01 
  0.00000000e+00   8.00000000e-01   4.00000000e-01 
  0.00000000e+00   8.00000000e-01   5.00000000e-01 
  0.00000000e+00   8.00000000e-01   6.00000000e-01 
  0.00000000e+00   8.00000000e-01   7.00000000e-01 
  0.00000000e+00   8.00000000e-01   8.00000000e-01 
  0.00000000e+00   8.00000000e-01   9.00000000e-01 
  0.00000000e+00   9.00000000e-01   0.00000000e+00 
  0.00000000e+00   9.00000000e-01   1.00000000e-01 
  0.00000000e+00   9.00000000e-01   2.00000000e-01 
  0.00000000e+00   9.00000000e-01   3.00000000e-01 
  0.00000000e+00   9.00000000e-01   4.00000000e-01 
  0.00000000e+00   9.00000000e-01   5.00000000e-01 
  0.00000000e+00   9.00000000e-01   6.00000000e-01 
  0.00000000e+00   9.00000000e-01   7.00000000e-01 
  0.00000000e+00   9.00000000e-01   8.00000000e-01 
  0.00000000e+00   9.00000000e-01   9.00000000e-01 
  1.00000000e-01   0.00000000e+00   0.00000000e+00 
  1.00000000e-01   0.00000000e+00   1.00000000e-01 
  1.00000000e-01   0.00000000e+00   2.00000000e-01 
  1.00000000e-01   0.00000000e+00   3.00000000e-01 
  1.00000000e-01   0.00000000e+00   4.00000000e-01 
  1.00000000e-01   0.00000000e+00   5.00000000e-01 
  1.00000000e-01   0.00000000e+00   6.00000000e-01 
  1.00000000e-01   0.00000000e+00   7.00000000e-01 
  1.00000000e-01   0.00000000e+00   8.00000000e-01 
  1.00000000e-01   0.00000000e+00   9.00000000e-01 
  1.00000000e-01   1.00000000e-01   0.00000000e+00 
  1.00000000e-01   1.00000000e-01   1.00000000e-01 
  1.00000000e-01   1.00000000e-01   2.00000000e-01 
  1.00000000e-01   1.00000000e-01   3.00000000e-01 
  1.00000000e-01   1.00000000e-01   4.00000000e-01 
  1.00000000e-01   1.00000000e-01   5.00000000e-01 
  1.00000000e-01   1.00000000e-01   6.00000000e-01 
  1.00000000e-01   1.00000000e-01   7.00000000e-01 
  1.00000000e-01   1.00000000e-01   8.00000000e-01 
  1.00000000e-01   1.00000000e-01   9.00000000e-01 
  1.00000000e-01   2.00000000e-01   0.00000000e+00 
  1.00000000e-01   2.00000000e-01   1.00000000e-01 
  1.00000000e-01   2.00000000e-01   2.00000000e-01 
  1.00000000e-01   2.00000000e-01   3.00000000e-01 
  1.00000000e-01   2.00000000e-01   4.00000000e-01 
  1.00000000e-01   2.00000000e-01   5.00000000e-01 
  1.00000000e-01   2.00000000e-01   6.00000000e-01 
  1.00000000e-01   2.00000000e-01   7.00000000e-01 
  1.00000000e-01   2.00000000e-01   8.00000000e-01 
  1.00000000e-01   2.00000000e-01   9.00000000e-01 
  1.00000000e-01   3.00000000e-01   0.00000000e+00 
  1.00000000e-01   3.00000000e-01   1.00000000e-01 
  1.00000000e-01   3.00000000e-01   2.00000000e-01 
  1.00000000e-01   3.00000000e-01   3.00000000e-01 
  1.00000000e-01   3.00000000e-01   4.00000000e-01 
  1.00000000e-01   3.00000000e-01   5.00000000e-01 
  1.00000000e-01   3.00000000e-01   6.00000000e-01 
  1.00000000e-01   3.00000000e-01   7.00000000e-01 
  1.00000000e-01   3.00000000e-01   8.00000000e-01 
  1.00000000e-01   3.00000000e-01   9.00000000e-01 
  1.00000000e-01   4.00000000e-01   0.00000000e+00 
  1.00000000e-01   4.00000000e-01   1.00000000e-01 
  1.00000000e-01   4.00000000e-01   2.00000000e-01 
  1.00000000e-01   4.00000000e-01   3.00000000e-01 
  1.00000000e-01   4.00000000e-01   4.00000000e-01 
  1.00000000e-01   4.00000000e-01   5.00000000e-01 
  1.00000000e-01   4.00000000e-01   6.00000000e-01 
  1.00000000e-01   4.00000000e-01   7.00000000e-01 
  1.00000000e-01   4.00000000e-01   8.00000000e-01 
  1.00000000e-01   4.00000000e-01   9.00000000e-01 
  1.00000000e-01   5.00000000e-01   0.00000000e+00 
  1.00000000e-01   5.00000000e-01   1.00000000e-01 
  1.00000000e-01   5.00000000e-01   2.00000000e-01 
  1.00000000e-01   5.00000000e-01   3.00000000e-01 
  1.00000000e-01   5.00000000e-01   4.00000000e-01 
  1.00000000e-01   5.00000000e-01   5.00000000e-01 
  1.00000000e-01   5.00000000e-01   6.00000000e-01 
  1.00000000e-01   5.00000000e-01   7.00000000e-01 
  1.00000000e-01   5.00000000e-01   8.00000000e-01 
  1.00000000e-01   5.00000000e-01   9.00000000e-01 
  1.00000000e-01   6.00000000e-01   0.00000000e+00 
  1.00000000e-01   6.00000000e-01   1.00000000e-01 
  1.00000000e-01   6.00000000e-01   2.00000000e-01 
  1.00000000e-01   6.00000000e-01   3.00000000e-01 
  1.00000000e-01   6.00000000e-01   4.00000000e-01 
  1.00000000e-01   6.00000000e-01   5.00000000e-01 
  1.00000000e-01   6.00000000e-01   6.00000000e-01 
  1.00000000e-01   6.00000000e-01   7.00000000e-01 
  1.00000000e-01   6.00000000e-01   8.00000000e-01 
  1.00000000e-01   6.00000000e-01   9.00000000e-01 
  1.00000000e-01   7.00000000e-01   0.00000000e+00 
  1.00000000e-01   7.00000000e-01   1.00000000e-01 
  1.00000000e-01   7.00000000e-01   2.00000000e-01 
  1.00000000e-01   7.00000000e-01   3.00000000e-01 
  1.00000000e-01   7.00000000e-01   4.00000000e-01 
  1.00000000e-01   7.00000000e-01   5.00000000e-01 
  1.00000000e-01   7.00000000e-01   6.00000000e-01 
  1.00000000e-01   7.00000000e-01   7.00000000e-01 
  1.00000000e-01   7.00000000e-01   8.00000000e-01 
  1.00000000e-01   7.00000000e-01   9.00000000e-01 
  1.00000000e-01   8.00000000e-01   0.00000000e+00 
  1.00000000e-01   8.00000000e-01   1.00000000e-01 
  1.00000000e-01   8.00000000e-01   2.00000000e-01 
  1.00000000e-01   8.00000000e-01   3.00000000e-01 
  1.00000000e-01   8.00000000e-01   4.00000000e-01 
  1.00000000e-01   8.00000000e-01   5.00000000e-01 
  1.00000000e-01   8.00000000e-01   6.00000000e-01 
  1.00000000e-01   8.00000000e-01   7.00000000e-01 
  1.00000000e-01   8.00000000e-01   8.00000000e-01 
[...]
POINT_DATA   1000
FIELD solution 1
u 3   1000 DOUBLE
   -2.06427830e-04     1.12548004e-04     1.01500123e-04 
   -2.15705486e-04     9.95570423e-05     8.48829877e-05 
   -2.09737677e-04     9.92622852e-05     4.45816350e-05 
   -2.08253471e-04     9.62347397e-05     3.92190170e-05 
   -2.05498620e-04     9.59821786e-05     3.90310267e-06 
   -2.05498042e-04     9.59823256e-05    -3.92323789e-06 
   -2.08256596e-04     9.62343457e-05    -3.92428681e-05 
   -2.09739092e-04     9.92624595e-05    -4.46031411e-05 
   -2.15715123e-04     9.95559382e-05    -8.49125860e-05 
   -2.06383020e-04     1.12547065e-04    -1.01531097e-04 
   -2.07704600e-04     7.10401415e-05     1.01274245e-04 
   -2.00386401e-04     7.75333521e-05     7.52135755e-05 
   -1.98634726e-04     6.98411754e-05     4.97552047e-05 
   -1.96764583e-04     7.19638715e-05     3.41656176e-05 
   -1.94485536e-04     6.88417646e-05     8.85083975e-06 
   -1.94486184e-04     6.88360890e-05    -8.86208354e-06 
   -1.96766437e-04     7.19694734e-05    -3.41796991e-05 
   -1.98638111e-04     6.98346500e-05    -4.97651135e-05 
   -2.00383873e-04     7.75460778e-05    -7.52385036e-05 
   -2.07705403e-04     7.10392487e-05    -1.01290085e-04 
   -2.07986117e-04     5.60203529e-05     9.93348781e-05 
   -1.98467824e-04     5.34777665e-05     7.31786223e-05 
   -1.97701438e-04     5.54656210e-05     5.19735012e-05 
   -1.96640685e-04     5.11855615e-05     3.41533272e-05 
   -1.95159567e-04     5.05594431e-05     7.85638135e-06 
   -1.95160148e-04     5.05585134e-05    -7.86849217e-06 
   -1.96642198e-04     5.11859288e-05    -3.41687077e-05 
   -1.97700200e-04     5.54685026e-05    -5.19905897e-05 
   -1.98473071e-04     5.34747603e-05    -7.31965588e-05 
   -2.07989741e-04     5.60312119e-05    -9.93496446e-05 
   -2.05933396e-04     2.85201919e-05     9.60529564e-05 
   -1.96152522e-04     3.26058657e-05     6.89390621e-05 
   -1.96506763e-04     3.12750758e-05     4.99743680e-05 
   -1.96720859e-04     3.37237341e-05     3.36660450e-05 
   -1.95225162e-04     3.06182274e-05     1.03482460e-05 
   -1.95225642e-04     3.06141436e-05    -1.03608543e-05 
   -1.96719963e-04     3.37390013e-05    -3.36911849e-05 
   -1.96508751e-04     3.12719845e-05    -4.99896982e-05 
   -1.96155917e-04     3.26070105e-05    -6.89532846e-05 
   -2.05935819e-04     2.85163752e-05    -9.60673727e-05 
   -2.04387836e-04     1.37256552e-05     9.55640768e-05 
   -1.94098125e-04     1.17196719e-05     6.89020795e-05 
   -1.95067232e-04     1.20476636e-05     4.98736639e-05 
   -1.95218261e-04     1.10594226e-05     3.20500586e-05 
   -1.94719261e-04     1.13629763e-05     1.05987863e-05 
   -1.94718916e-04     1.13727997e-05    -1.06218328e-05 
   -1.95219029e-04     1.10583551e-05    -3.20612430e-05 
   -1.95068683e-04     1.20500005e-05    -4.98878978e-05 
   -1.94100935e-04     1.17195044e-05    -6.89176557e-05 
   -2.04390309e-04     1.37332834e-05    -9.55785927e-05 
   -2.04387836e-04    -1.37256552e-05     9.55640768e-05 
   -1.94098125e-04    -1.17196719e-05     6.89020795e-05 
   -1.95067232e-04    -1.20476636e-05     4.98736639e-05 
   -1.95218261e-04    -1.10594226e-05     3.20500586e-05 
   -1.94719261e-04    -1.13629763e-05     1.05987863e-05 
   -1.94718916e-04    -1.13727997e-05    -1.06218328e-05 
   -1.95219029e-04    -1.10583551e-05    -3.20612430e-05 
   -1.95068683e-04    -1.20500005e-05    -4.98878978e-05 
   -1.94100935e-04    -1.17195044e-05    -6.89176557e-05 
   -2.04390309e-04    -1.37332834e-05    -9.55785927e-05 
   -2.05933396e-04    -2.85201919e-05     9.60529564e-05 
   -1.96152522e-04    -3.26058657e-05     6.89390621e-05 
   -1.96506763e-04    -3.12750758e-05     4.99743680e-05 
   -1.96720859e-04    -3.37237341e-05     3.36660450e-05 
   -1.95225162e-04    -3.06182274e-05     1.03482460e-05 
   -1.95225642e-04    -3.06141436e-05    -1.03608543e-05 
   -1.96719963e-04    -3.37390013e-05    -3.36911849e-05 
   -1.96508751e-04    -3.12719845e-05    -4.99896982e-05 
   -1.96155917e-04    -3.26070105e-05    -6.89532846e-05 
   -2.05935819e-04    -2.85163752e-05    -9.60673727e-05 
   -2.07986117e-04    -5.60203529e-05     9.93348781e-05 
   -1.98467824e-04    -5.34777665e-05     7.31786223e-05 
   -1.97701438e-04    -5.54656210e-05     5.19735012e-05 
   -1.96640685e-04    -5.11855615e-05     3.41533272e-05 
   -1.95159567e-04    -5.05594431e-05     7.85638135e-06 
   -1.95160148e-04    -5.05585134e-05    -7.86849217e-06 
   -1.96642198e-04    -5.11859288e-05    -3.41687077e-05 
   -1.97700200e-04    -5.54685026e-05    -5.19905897e-05 
   -1.98473071e-04    -5.34747603e-05    -7.31965588e-05 
   -2.07989741e-04    -5.60312119e-05    -9.93496446e-05 
   -2.07704600e-04    -7.10401415e-05     1.01274245e-04 
   -2.00386401e-04    -7.75333521e-05     7.52135755e-05 
   -1.98634726e-04    -6.98411754e-05     4.97552047e-05 
   -1.96764583e-04    -7.19638715e-05     3.41656176e-05 
   -1.94485536e-04    -6.88417646e-05     8.85083975e-06 
   -1.94486184e-04    -6.88360890e-05    -8.86208354e-06 
   -1.96766437e-04    -7.19694734e-05    -3.41796991e-05 
   -1.98638111e-04    -6.98346500e-05    -4.97651135e-05 
   -2.00383873e-04    -7.75460778e-05    -7.52385036e-05 
   -2.07705403e-04    -7.10392487e-05    -1.01290085e-04 
   -2.06427830e-04    -1.12548004e-04     1.01500123e-04 
   -2.15705486e-04    -9.95570423e-05     8.48829877e-05 
   -2.09737677e-04    -9.92622852e-05     4.45816350e-05 
   -2.08253471e-04    -9.62347397e-05     3.92190170e-05 
   -2.05498620e-04    -9.59821786e-05     3.90310267e-06 
   -2.05498042e-04    -9.59823256e-05    -3.92323789e-06 
   -2.08256596e-04    -9.62343457e-05    -3.92428681e-05 
   -2.09739092e-04    -9.92624595e-05    -4.46031411e-05 
   -2.15715123e-04    -9.95559382e-05    -8.49125860e-05 
   -2.06383020e-04    -1.12547065e-04    -1.01531097e-04 
   -1.67778426e-04     1.04013017e-04     1.01831844e-04 
   -1.51598902e-04     9.54358933e-05     7.48309963e-05 
   -1.60050135e-04     9.39726393e-05     4.94462769e-05 
   -1.50069933e-04     9.11189576e-05     3.24286521e-05 
   -1.51633086e-04     9.11757914e-05     8.78085368e-06 
   -1.51642281e-04     9.11761038e-05    -8.78623879e-06 
   -1.50061337e-04     9.11195592e-05    -3.24354218e-05 
   -1.60060338e-04     9.39733521e-05    -4.94534286e-05 
   -1.51588640e-04     9.54347505e-05    -7.48379444e-05 
   -1.67773867e-04     1.04023742e-04    -1.01844774e-04 
   -1.62026915e-04     6.97025144e-05     9.63643174e-05 
   -1.52141775e-04     8.06227055e-05     6.97742475e-05 
   -1.55089400e-04     7.18366047e-05     5.55848825e-05 
   -1.47902173e-04     7.54746373e-05     2.97156092e-05 
   -1.48263794e-04     7.18460289e-05     1.27999037e-05 
   -1.48272834e-04     7.18359806e-05    -1.28045427e-05 
   -1.47893816e-04     7.54840088e-05    -2.97171205e-05 
   -1.55098317e-04     7.18239036e-05    -5.55947833e-05 
   -1.52141540e-04     8.06243218e-05    -6.97592826e-05 
   -1.62041040e-04     6.96890077e-05    -9.63704458e-05 
   -1.52229657e-04     5.62380414e-05     9.43809660e-05 
   -1.49635484e-04     5.32173508e-05     7.74977119e-05 
   -1.52722699e-04     5.67634059e-05     5.35367164e-05 
   -1.49505349e-04     5.05467127e-05     3.33304892e-05 
   -1.48725259e-04     5.13135486e-05     9.06871746e-06 
   -1.48729946e-04     5.13150635e-05    -9.07295631e-06 
   -1.49499687e-04     5.05439501e-05    -3.33366716e-05 
   -1.52733506e-04     5.67665508e-05    -5.35440368e-05 
   -1.49630890e-04     5.32127560e-05    -7.75053404e-05 
   -1.52230736e-04     5.62484886e-05    -9.43897511e-05 
   -1.52226071e-04     2.67756118e-05     9.12339284e-05 
   -1.49951852e-04     3.26354290e-05     7.16725051e-05 
   -1.49499657e-04     3.09603381e-05     5.12977302e-05 
   -1.47840999e-04     3.32650267e-05     3.24736598e-05 
   -1.45163074e-04     3.02767261e-05     1.16509475e-05 
   -1.45165967e-04     3.02722026e-05    -1.16571916e-05 
   -1.47837273e-04     3.32699126e-05    -3.24795668e-05 
   -1.49501300e-04     3.09543941e-05    -5.13064113e-05 
   -1.49953360e-04     3.26369134e-05    -7.16740194e-05 
   -1.52232870e-04     2.67666273e-05    -9.12433426e-05 
   -1.48436614e-04     1.40746294e-05     9.09269071e-05 
   -1.46774773e-04     1.11694803e-05     7.32792477e-05 
   -1.47320991e-04     1.24604893e-05     5.07443957e-05 
   -1.45724364e-04     1.10030827e-05     3.18278960e-05 
   -1.43778683e-04     1.13938544e-05     1.10576345e-05 
   -1.43783486e-04     1.13986933e-05    -1.10659297e-05 
   -1.45722033e-04     1.10018871e-05    -3.18322963e-05 
   -1.47323239e-04     1.24656326e-05    -5.07519222e-05 
   -1.46774645e-04     1.11679945e-05    -7.32858906e-05 
   -1.48439711e-04     1.40836403e-05    -9.09365288e-05 
   -1.48436614e-04    -1.40746294e-05     9.09269071e-05 
   -1.46774773e-04    -1.11694803e-05     7.32792477e-05 
   -1.47320991e-04    -1.24604893e-05     5.07443957e-05 
   -1.45724364e-04    -1.10030827e-05     3.18278960e-05 
   -1.43778683e-04    -1.13938544e-05     1.10576345e-05 
   -1.43783486e-04    -1.13986933e-05    -1.10659297e-05 
   -1.45722033e-04    -1.10018871e-05    -3.18322963e-05 
   -1.47323239e-04    -1.24656326e-05    -5.07519222e-05 
   -1.46774645e-04    -1.11679945e-05    -7.32858906e-05 
   -1.48439711e-04    -1.40836403e-05    -9.09365288e-05 
   -1.52226071e-04    -2.67756118e-05     9.12339284e-05 
   -1.49951852e-04    -3.26354290e-05     7.16725051e-05 
   -1.49499657e-04    -3.09603381e-05     5.12977302e-05 
   -1.47840999e-04    -3.32650267e-05     3.24736598e-05 
   -1.45163074e-04    -3.02767261e-05     1.16509475e-05 
   -1.45165967e-04    -3.02722026e-05    -1.16571916e-05 
   -1.47837273e-04    -3.32699126e-05    -3.24795668e-05 
   -1.49501300e-04    -3.09543941e-05    -5.13064113e-05 
   -1.49953360e-04    -3.26369134e-05    -7.16740194e-05 
   -1.52232870e-04    -2.67666273e-05    -9.12433426e-05 
   -1.52229657e-04    -5.62380414e-05     9.43809660e-05 
   -1.49635484e-04    -5.32173508e-05     7.74977119e-05 
   -1.52722699e-04    -5.67634059e-05     5.35367164e-05 
   -1.49505349e-04    -5.05467127e-05     3.33304892e-05 
   -1.48725259e-04    -5.13135486e-05     9.06871746e-06 
   -1.48729946e-04    -5.13150635e-05    -9.07295631e-06 
   -1.49499687e-04    -5.05439501e-05    -3.33366716e-05 
   -1.52733506e-04    -5.67665508e-05    -5.35440368e-05 
   -1.49630890e-04    -5.32127560e-05    -7.75053404e-05 
   -1.52230736e-04    -5.62484886e-05    -9.43897511e-05 
   -1.62026915e-04    -6.97025144e-05     9.63643174e-05 
   -1.52141775e-04    -8.06227055e-05     6.97742475e-05 
   -1.55089400e-04    -7.18366047e-05     5.55848825e-05 
   -1.47902173e-04    -7.54746373e-05     2.97156092e-05 
   -1.48263794e-04    -7.18460289e-05     1.27999037e-05 
   -1.48272834e-04    -7.18359806e-05    -1.28045427e-05 
   -1.47893816e-04    -7.54840088e-05    -2.97171205e-05 
   -1.55098317e-04    -7.18239036e-05    -5.55947833e-05 
   -1.52141540e-04    -8.06243218e-05    -6.97592826e-05 
   -1.62041040e-04    -6.96890077e-05    -9.63704458e-05 
   -1.67778426e-04    -1.04013017e-04     1.01831844e-04 
   -1.51598902e-04    -9.54358933e-05     7.48309963e-05 
   -1.60050135e-04    -9.39726393e-05     4.94462769e-05 
   -1.50069933e-04    -9.11189576e-05     3.24286521e-05 
   -1.51633086e-04    -9.11757914e-05     8.78085368e-06 
   -1.51642281e-04    -9.11761038e-05    -8.78623879e-06 
   -1.50061337e-04    -9.11195592e-05    -3.24354218e-05 
   -1.60060338e-04    -9.39733521e-05    -4.94534286e-05 
   -1.51588640e-04    -9.54347505e-05    -7.48379444e-05 
   -1.67773867e-04    -1.04023742e-04    -1.01844774e-04 
   -1.09299415e-04     9.81576206e-05     9.68278104e-05 
   -1.16050214e-04     9.35313772e-05     7.72628969e-05 
   -1.07779556e-04     9.43686603e-05     4.95287279e-05 
   -1.07660264e-04     9.08376047e-05     3.21454565e-05 
   -1.05054198e-04     9.01323438e-05     6.04978041e-06 
   -1.05054121e-04     9.01318397e-05    -6.05733252e-06 
   -1.07661892e-04     9.08379292e-05    -3.21555851e-05 
   -1.07781708e-04     9.43674566e-05    -4.95348096e-05 
   -1.16058212e-04     9.35312874e-05    -7.72787176e-05 
   -1.09282413e-04     9.81590375e-05    -9.68368666e-05 
   -1.07989767e-04     7.66886779e-05     9.39472497e-05 
   -1.11283821e-04     7.66353574e-05     7.82418405e-05 
   -1.05187935e-04     7.35347054e-05     5.18227305e-05 
   -1.06786825e-04     7.24181679e-05     3.19162693e-05 
   -1.04329717e-04     7.04384111e-05     8.33248162e-06 
   -1.04328964e-04     7.04334698e-05    -8.33588275e-06 
   -1.06787401e-04     7.24233855e-05    -3.19226084e-05 
   -1.05187560e-04     7.35306804e-05    -5.18255199e-05 
   -1.11297690e-04     7.66358735e-05    -7.82481241e-05 
   -1.07986600e-04     7.66958471e-05    -9.39549705e-05 
   -1.07237657e-04     5.33328573e-05     9.48326754e-05 
   -1.08238240e-04     5.25224040e-05     7.45056835e-05 
   -1.05290046e-04     5.60452171e-05     5.41792578e-05 
   -1.04536035e-04     5.13240306e-05     3.18868349e-05 
   -1.02239725e-04     5.19065147e-05     7.66581509e-06 
   -1.02238873e-04     5.19071618e-05    -7.67134697e-06 
   -1.04537535e-04     5.13228625e-05    -3.18933933e-05 
   -1.05294783e-04     5.60449754e-05    -5.41845828e-05 
   -1.08244573e-04     5.25164498e-05    -7.45151195e-05 
   -1.07240175e-04     5.33350579e-05    -9.48389256e-05 
   -1.06179948e-04     2.80422199e-05     9.10301653e-05 
   -1.05416436e-04     3.05250890e-05     7.11597148e-05 
   -1.03509175e-04     3.04195958e-05     5.19164216e-05 
   -1.02271111e-04     3.15937346e-05     3.15044510e-05 
   -9.97298830e-05     2.81207334e-05     9.73120143e-06 
   -9.97302919e-05     2.81169314e-05    -9.73748952e-06 
   -1.02274047e-04     3.15982420e-05    -3.15117646e-05 
   -1.03509992e-04     3.04163089e-05    -5.19249805e-05 
   -1.05417279e-04     3.05276437e-05    -7.11661743e-05 
   -1.06182255e-04     2.80401022e-05    -9.10383542e-05 
   -1.03846979e-04     1.03760474e-05     9.00639059e-05 
   -1.03555653e-04     1.03813542e-05     7.06688782e-05 
   -1.01771132e-04     1.03405388e-05     5.18635284e-05 
   -9.96590850e-05     9.58707157e-06     2.92793352e-05 
   -9.78200160e-05     9.60502767e-06     9.76180642e-06 
   -9.78202447e-05     9.60812213e-06    -9.77037538e-06 
   -9.96600065e-05     9.58459308e-06    -2.92844115e-05 
   -1.01771856e-04     1.03431737e-05    -5.18711582e-05 
   -1.03558224e-04     1.03797039e-05    -7.06771022e-05 
   -1.03849148e-04     1.03793594e-05    -9.00719718e-05 
   -1.03846979e-04    -1.03760474e-05     9.00639059e-05 
   -1.03555653e-04    -1.03813542e-05     7.06688782e-05 
   -1.01771132e-04    -1.03405388e-05     5.18635284e-05 
   -9.96590850e-05    -9.58707157e-06     2.92793352e-05 
   -9.78200160e-05    -9.60502767e-06     9.76180642e-06 
   -9.78202447e-05    -9.60812213e-06    -9.77037538e-06 
   -9.96600065e-05    -9.58459308e-06    -2.92844115e-05 
   -1.01771856e-04    -1.03431737e-05    -5.18711582e-05 
   -1.03558224e-04    -1.03797039e-05    -7.06771022e-05 
   -1.03849148e-04    -1.03793594e-05    -9.00719718e-05 
   -1.06179948e-04    -2.80422199e-05     9.10301653e-05 
   -1.05416436e-04    -3.05250890e-05     7.11597148e-05 
   -1.03509175e-04    -3.04195958e-05     5.19164216e-05 
   -1.02271111e-04    -3.15937346e-05     3.15044510e-05 
   -9.97298830e-05    -2.81207334e-05     9.73120143e-06 
   -9.97302919e-05    -2.81169314e-05    -9.73748952e-06 
   -1.02274047e-04    -3.15982420e-05    -3.15117646e-05 
   -1.03509992e-04    -3.04163089e-05    -5.19249805e-05 
   -1.05417279e-04    -3.05276437e-05    -7.11661743e-05 
   -1.06182255e-04    -2.80401022e-05    -9.10383542e-05 
   -1.07237657e-04    -5.33328573e-05     9.48326754e-05 
   -1.08238240e-04    -5.25224040e-05     7.45056835e-05 
   -1.05290046e-04    -5.60452171e-05     5.41792578e-05 
   -1.04536035e-04    -5.13240306e-05     3.18868349e-05 
   -1.02239725e-04    -5.19065147e-05     7.66581509e-06 
   -1.02238873e-04    -5.19071618e-05    -7.67134697e-06 
   -1.04537535e-04    -5.13228625e-05    -3.18933933e-05 
   -1.05294783e-04    -5.60449754e-05    -5.41845828e-05 
   -1.08244573e-04    -5.25164498e-05    -7.45151195e-05 
   -1.07240175e-04    -5.33350579e-05    -9.48389256e-05 
   -1.07989767e-04    -7.66886779e-05     9.39472497e-05 
   -1.11283821e-04    -7.66353574e-05     7.82418405e-05 
   -1.05187935e-04    -7.35347054e-05     5.18227305e-05 
   -1.06786825e-04    -7.24181679e-05     3.19162693e-05 
   -1.04329717e-04    -7.04384111e-05     8.33248162e-06 
   -1.04328964e-04    -7.04334698e-05    -8.33588275e-06 
   -1.06787401e-04    -7.24233855e-05    -3.19226084e-05 
   -1.05187560e-04    -7.35306804e-05    -5.18255199e-05 
   -1.11297690e-04    -7.66358735e-05    -7.82481241e-05 
   -1.07986600e-04    -7.66958471e-05    -9.39549705e-05 
   -1.09299415e-04    -9.81576206e-05     9.68278104e-05 
   -1.16050214e-04    -9.35313772e-05     7.72628969e-05 
   -1.07779556e-04    -9.43686603e-05     4.95287279e-05 
   -1.07660264e-04    -9.08376047e-05     3.21454565e-05 
   -1.05054198e-04    -9.01323438e-05     6.04978041e-06 
   -1.05054121e-04    -9.01318397e-05    -6.05733252e-06 
   -1.07661892e-04    -9.08379292e-05    -3.21555851e-05 
   -1.07781708e-04    -9.43674566e-05    -4.95348096e-05 
   -1.16058212e-04    -9.35312874e-05    -7.72787176e-05 
   -1.09282413e-04    -9.81590375e-05    -9.68368666e-05 
   -7.58576286e-05     9.77664908e-05     9.59769979e-05 
   -6.73440377e-05     9.12936570e-05     7.19934624e-05 
   -6.93593040e-05     9.07450046e-05     5.00858991e-05 
   -6.39951183e-05     9.00202522e-05     2.98280404e-05 
   -6.46592411e-05     8.86562246e-05     9.24556195e-06 
   -6.46638427e-05     8.86560335e-05    -9.25350836e-06 
   -6.39918792e-05     9.00198469e-05    -2.98342913e-05 
   -6.93644320e-05     9.07447802e-05    -5.00962969e-05 
   -6.73431975e-05     9.12940713e-05    -7.19995922e-05 
   -7.58533726e-05     9.77716867e-05    -9.59904426e-05 
   -7.36004008e-05     7.12487536e-05     9.10027533e-05 
   -6.61669493e-05     7.52180506e-05     7.37029218e-05 
   -6.66466989e-05     7.20203723e-05     5.21310268e-05 
   -6.31591179e-05     7.16585241e-05     2.97390265e-05 
   -6.41568754e-05     7.15914082e-05     1.12408721e-05 
   -6.41595346e-05     7.15875445e-05    -1.12460739e-05 
   -6.31583674e-05     7.16604344e-05    -2.97392101e-05 
   -6.66521785e-05     7.20158877e-05    -5.21379846e-05 
   -6.61715926e-05     7.52163568e-05    -7.36997310e-05 
   -7.36085305e-05     7.12422590e-05    -9.10092101e-05 
   -6.83108458e-05     5.02904966e-05     9.08833644e-05 
   -6.42431160e-05     5.22872320e-05     7.08768235e-05 
   -6.35080121e-05     5.50035932e-05     5.50911236e-05 
   -6.06842956e-05     5.13407690e-05     3.09325777e-05 
   -6.19815156e-05     5.17630189e-05     9.91872324e-06 
   -6.19845501e-05     5.17631719e-05    -9.92387395e-06 
   -6.06825345e-05     5.13400282e-05    -3.09351202e-05 
   -6.35153282e-05     5.50052459e-05    -5.50992901e-05 
   -6.42429837e-05     5.22861547e-05    -7.08788924e-05 
   -6.83141188e-05     5.02932776e-05    -9.08896662e-05 
   -6.49583450e-05     2.81043455e-05     9.02665204e-05 
   -6.20725158e-05     3.10495287e-05     7.20141167e-05 
   -6.12453312e-05     3.06633418e-05     5.14860921e-05 
   -5.83479583e-05     3.23206242e-05     3.26506607e-05 
   -5.85403270e-05     2.94470919e-05     1.09551944e-05 
   -5.85425108e-05     2.94447932e-05    -1.09614225e-05 
   -5.83495286e-05     3.23219632e-05    -3.26552451e-05 
   -6.12483106e-05     3.06587621e-05    -5.14935068e-05 
   -6.20728813e-05     3.10496090e-05    -7.20177749e-05 
   -6.49609166e-05     2.80997354e-05    -9.02725422e-05 
   -6.25367331e-05     1.11021218e-05     8.87010795e-05 
   -6.27280050e-05     1.10368315e-05     7.23664959e-05 
   -6.06909392e-05     1.03920886e-05     5.16996267e-05 