# vtk DataFile Version 2.0 
generated by Lattice Boltzmann Method time =   9.23760431e-01
ASCII 
DATASET UNSTRUCTURED_GRID

POINTS   1000 FLOAT 
  0.00000000e+00   0.00000000e+00   0.00000000e+00 
  0.00000000e+00   0.00000000e+00   1.00000000e-01 
  0.00000000e+00   0.00000000e+00   2.00000000e-01 
  0.00000000e+00   0.00000000e+00   3.00000000e-01 
  0.00000000e+00   0.00000000e+00   4.00000000e-01 
  0.00000000e+00   0.00000000e+00   5.00000000e-01 
  0.00000000e+00   0.00000000e+00   6.00000000e-01 
  0.00000000e+00   0.00000000e+00   7.00000000e-01 
  0.00000000e+00   0.00000000e+00   8.00000000e-01 
  0.00000000e+00   0.00000000e+00   9.00000000e-01 
  0.00000000e+00   1.00000000e-01   0.00000000e+00 
  0.00000000e+00   1.00000000e-01   1.00000000e-01 
  0.00000000e+00   1.00000000e-01   2.00000000e-01 
  0.00000000e+00   1.00000000e-01   3.00000000e-01 
  0.00000000e+00   1.00000000e-01   4.00000000e-01 
  0.00000000e+00   1.00000000e-01   5.00000000e-01 
  0.00000000e+00   1.00000000e-01   6.00000000e-01 
  0.00000000e+00   1.00000000e-01   7.00000000e-01 
  0.00000000e+00   1.00000000e-01   8.00000000e-01 
  0.00000000e+00   1.00000000e-01   9.00000000e-01 
  0.00000000e+00   2.00000000e-01   0.00000000e+00 
  0.00000000e+00   2.00000000e-01   1.00000000e-01 
  0.00000000e+00   2.00000000e-01   2.00000000e-01 
  0.00000000e+00   2.00000000e-01   3.00000000e-01 
  0.00000000e+00   2.00000000e-01   4.00000000e-01 
  0.00000000e+00   2.00000000e-01   5.00000000e-01 
  0.00000000e+00   2.00000000e-01   6.00000000e-01 
  0.00000000e+00   2.00000000e-01   7.00000000e-01 
  0.00000000e+00   2.00000000e-01   8.00000000e-01 
  0.00000000e+00   2.00000000e-01   9.00000000e-01 
  0.00000000e+00   3.00000000e-01   0.00000000e+00 
  0.00000000e+00   3.00000000e-01   1.00000000e-01 
  0.00000000e+00   3.00000000e-01   2.00000000e-01 
  0.00000000e+00   3.00000000e-01   3.00000000e-01 
  0.00000000e+00   3.00000000e-01   4.00000000e-01 
  0.00000000e+00   3.00000000e-01   5.00000000e-01 
  0.00000000e+00   3.00000000e-01   6.00000000e-01 
  0.00000000e+00   3.00000000e-01   7.00000000e-01 
  0.00000000e+00   3.00000000e-01   8.00000000e-01 
  0.00000000e+00   3.00000000e-01   9.00000000e-01 
  0.00000000e+00   4.00000000e-01   0.00000000e+00 
  0.00000000e+00   4.00000000e-01   1.00000000e-01 
  0.00000000e+00   4.00000000e-01   2.00000000e-01 
  0.00000000e+00   4.00000000e-01   3.00000000e-01 
  0.00000000e+00   4.00000000e-01   4.00000000e-01 
  0.00000000e+00   4.00000000e-01   5.00000000e-01 
  0.00000000e+00   4.00000000e-01   6.00000000e-01 
  0.00000000e+00   4.00000000e-01   7.00000000e-01 
  0.00000000e+00   4.00000000e-01   8.00000000e-01 
  0.00000000e+00   4.00000000e-01   9.00000000e-01 
  0.00000000e+00   5.00000000e-01   0.00000000e+00 
  0.00000000e+00   5.00000000e-01   1.00000000e-01 
  0.00000000e+00   5.00000000e-01   2.00000000e-01 
  0.00000000e+00   5.00000000e-01   3.00000000e-01 
  0.00000000e+00   5.00000000e-01   4.00000000e-01 
  0.00000000e+00   5.00000000e-01   5.00000000e-01 
  0.00000000e+00   5.00000000e-01   6.00000000e-01 
  0.00000000e+00   5.00000000e-01   7.00000000e-01 
  0.00000000e+00   5.00000000e-01   8.00000000e-01 
  0.00000000e+00   5.00000000e-01   9.00000000e-01 
  0.00000000e+00   6.00000000e-01   0.00000000e+00 
  0.00000000e+00   6.00000000e-01   1.00000000e-01 
  0.00000000e+00   6.00000000e-01   2.00000000e-01 
  0.00000000e+00   6.00000000e-01   3.00000000e-01 
  0.00000000e+00   6.00000000e-01   4.00000000e-01 
  0.00000000e+00   6.00000000e-01   5.00000000e-01 
  0.00000000e+00   6.00000000e-01   6.00000000e-01 
  0.00000000e+00   6.00000000e-01   7.00000000e-01 
  0.00000000e+00   6.00000000e-01   8.00000000e-01 
  0.00000000e+00   6.00000000e-01   9.00000000e-01 
  0.00000000e+00   7.00000000e-01   0.00000000e+00 
  0.00000000e+00   7.00000000e-01   1.00000000e-01 
  0.00000000e+00   7.00000000e-01   2.00000000e-01 
  0.00000000e+00   7.00000000e-01   3.00000000e-01 
  0.00000000e+00   7.00000000e-01   4.00000000e-01 
  0.00000000e+00   7.00000000e-01   5.00000000e-01 
  0.00000000e+00   7.00000000e-01   6.00000000e-01 
  0.00000000e+00   7.00000000e-01   7.00000000e-01 
  0.00000000e+00   7.00000000e-01   8.00000000e-01 
  0.00000000e+00   7.00000000e-01   9.00000000e-01 
  0.00000000e+00   8.00000000e-01   0.00000000e+00 
  0.00000000e+00   8.00000000e-01   1.00000000e-01 
  0.00000000e+00   8.00000000e-01   2.00000000e-01 
  0.00000000e+00   8.00000000e-01   3.00000000e-01 
  0.00000000e+00   8.00000000e-01   4.00000000e-01 
  0.00000000e+00   8.00000000e-01   5.00000000e-01 
  0.00000000e+00   8.00000000e-01   6.00000000e-01 
  0.00000000e+00   8.00000000e-01   7.00000000e-01 
  0.00000000e+00   8.00000000e-01   8.00000000e-01 
  0.00000000e+00   8.00000000e-01   9.00000000e-01 
  0.00000000e+00   9.00000000e-01   0.00000000e+00 
  0.00000000e+00   9.00000000e-01   1.00000000e-01 
  0.00000000e+00   9.00000000e-01   2.00000000e-01 
  0.00000000e+00   9.00000000e-01   3.00000000e-01 
  0.00000000e+00   9.00000000e-01   4.00000000e-01 
  0.00000000e+00   9.00000000e-01   5.00000000e-01 
  0.00000000e+00   9.00000000e-01   6.00000000e-01 
  0.00000000e+00   9.00000000e-01   7.00000000e-01 
  0.00000000e+00   9.00000000e-01   8.00000000e-01 
  0.00000000e+00   9.00000000e-01   9.00000000e-01 
  1.00000000e-01   0.00000000e+00   0.00000000e+00 
  1.00000000e-01   0.00000000e+00   1.00000000e-01 
  1.00000000e-01   0.00000000e+00   2.00000000e-01 
  1.00000000e-01   0.00000000e+00   3.00000000e-01 
  1.00000000e-01   0.00000000e+00   4.00000000e-01 
  1.00000000e-01   0.00000000e+00   5.00000000e-01 
  1.00000000e-01   0.00000000e+00   6.00000000e-01 
  1.00000000e-01   0.00000000e+00   7.00000000e-01 
  1.00000000e-01   0.00000000e+00   8.00000000e-01 
  1.00000000e-01   0.00000000e+00   9.00000000e-01 
  1.00000000e-01   1.00000000e-01   0.00000000e+00 
  1.00000000e-01   1.00000000e-01   1.00000000e-01 
  1.00000000e-01   1.00000000e-01   2.00000000e-01 
  1.00000000e-01   1.00000000e-01   3.00000000e-01 
  1.00000000e-01   1.00000000e-01   4.00000000e-01 
  1.00000000e-01   1.00000000e-01   5.00000000e-01 
  1.00000000e-01   1.00000000e-01   6.00000000e-01 
  1.00000000e-01   1.00000000e-01   7.00000000e-01 
  1.00000000e-01   1.00000000e-01   8.00000000e-01 
  1.00000000e-01   1.00000000e-01   9.00000000e-01 
  1.00000000e-01   2.00000000e-01   0.00000000e+00 
  1.00000000e-01   2.00000000e-01   1.00000000e-01 
  1.00000000e-01   2.00000000e-01   2.00000000e-01 
  1.00000000e-01   2.00000000e-01   3.00000000e-01 
  1.00000000e-01   2.00000000e-01   4.00000000e-01 
  1.00000000e-01   2.00000000e-01   5.00000000e-01 
  1.00000000e-01   2.00000000e-01   6.00000000e-01 
  1.00000000e-01   2.00000000e-01   7.00000000e-01 
  1.00000000e-01   2.00000000e-01   8.00000000e-01 
  1.00000000e-01   2.00000000e-01   9.00000000e-01 
  1.00000000e-01   3.00000000e-01   0.00000000e+00 
  1.00000000e-01   3.00000000e-01   1.00000000e-01 
  1.00000000e-01   3.00000000e-01   2.00000000e-01 
  1.00000000e-01   3.00000000e-01   3.00000000e-01 
  1.00000000e-01   3.00000000e-01   4.00000000e-01 
  1.00000000e-01   3.00000000e-01   5.00000000e-01 
  1.00000000e-01   3.00000000e-01   6.00000000e-01 
  1.00000000e-01   3.00000000e-01   7.00000000e-01 
  1.00000000e-01   3.00000000e-01   8.00000000e-01 
  1.00000000e-01   3.00000000e-01   9.00000000e-01 
  1.00000000e-01   4.00000000e-01   0.00000000e+00 
  1.00000000e-01   4.00000000e-01   1.00000000e-01 
  1.00000000e-01   4.00000000e-01   2.00000000e-01 
  1.00000000e-01   4.00000000e-01   3.00000000e-01 
  1.00000000e-01   4.00000000e-01   4.00000000e-01 
  1.00000000e-01   4.00000000e-01   5.00000000e-01 
  1.00000000e-01   4.00000000e-01   6.00000000e-01 
  1.00000000e-01   4.00000000e-01   7.00000000e-01 
  1.00000000e-01   4.00000000e-01   8.00000000e-01 
  1.00000000e-01   4.00000000e-01   9.00000000e-01 
  1.00000000e-01   5.00000000e-01   0.00000000e+00 
  1.00000000e-01   5.00000000e-01   1.00000000e-01 
  1.00000000e-01   5.00000000e-01   2.00000000e-01 
  1.00000000e-01   5.00000000e-01   3.00000000e-01 
  1.00000000e-01   5.00000000e-01   4.00000000e-01 
  1.00000000e-01   5.00000000e-01   5.00000000e-01 
  1.00000000e-01   5.00000000e-01   6.00000000e-01 
  1.00000000e-01   5.00000000e-01   7.00000000e-01 
  1.00000000e-01   5.00000000e-01   8.00000000e-01 
  1.00000000e-01   5.00000000e-01   9.00000000e-01 
  1.00000000e-01   6.00000000e-01   0.00000000e+00 
  1.00000000e-01   6.00000000e-01   1.00000000e-01 
  1.00000000e-01   6.00000000e-01   2.00000000e-01 
  1.00000000e-01   6.00000000e-01   3.00000000e-01 
  1.00000000e-01   6.00000000e-01   4.00000000e-01 
  1.00000000e-01   6.00000000e-01   5.00000000e-01 
  1.00000000e-01   6.00000000e-01   6.00000000e-01 
  1.00000000e-01   6.00000000e-01   7.00000000e-01 
  1.00000000e-01   6.00000000e-01   8.00000000e-01 
  1.00000000e-01   6.00000000e-01   9.00000000e-01 
  1.00000000e-01   7.00000000e-01   0.00000000e+00 
  1.00000000e-01   7.00000000e-01   1.00000000e-01 
  1.00000000e-01   7.00000000e-01   2.00000000e-01 
  1.00000000e-01   7.00000000e-01   3.00000000e-01 
  1.00000000e-01   7.00000000e-01   4.00000000e-01 
  1.00000000e-01   7.00000000e-01   5.00000000e-01 
  1.00000000e-01   7.00000000e-01   6.00000000e-01 
  1.00000000e-01   7.00000000e-01   7.00000000e-01 
  1.00000000e-01   7.00000000e-01   8.00000000e-01 
  1.00000000e-01   7.00000000e-01   9.00000000e-01 
  1.00000000e-01   8.00000000e-01   0.00000000e+00 
  1.00000000e-01   8.00000000e-01   1.00000000e-01 
  1.00000000e-01   8.00000000e-01   2.00000000e-01 
  1.00000000e-01   8.00000000e-01   3.00000000e-01 
  1.00000000e-01   8.00000000e-01   4.00000000e-01 
  1.00000000e-01   8.00000000e-01   5.00000000e-01 
  1.00000000e-01   8.00000000e-01   6.00000000e-01 
  1.00000000e-01   8.00000000e-01   7.00000000e-01 
  1.00000000e-01   8.00000000e-01   8.00000000e-01 
[...]
POINT_DATA   1000
FIELD solution 1
u 3   1000 DOUBLE
   -1.45884517e-04     7.50096477e-05     7.71677233e-05 
   -1.57836196e-04     7.44804990e-05     5.89377606e-05 
   -1.71259512e-04     6.87186685e-05     4.99861729e-05 
   -1.81445850e-04     6.60425328e-05     3.23430513e-05 
   -1.89319696e-04     6.25274024e-05     1.23242396e-05 
   -1.89320030e-04     6.25293985e-05    -1.23356887e-05 
   -1.81446381e-04     6.60416216e-05    -3.23507571e-05 
   -1.71263671e-04     6.87188395e-05    -4.99935076e-05 
   -1.57841335e-04     7.44773998e-05    -5.89465257e-05 
   -1.45768347e-04     7.49573399e-05    -7.71600840e-05 
   -1.56043598e-04     6.07118762e-05     7.44108057e-05 
   -1.67406838e-04     5.73320009e-05     5.69056055e-05 
   -1.82306259e-04     5.40110104e-05     4.64806675e-05 
   -1.93561254e-04     5.09699638e-05     3.06622992e-05 
   -2.01806638e-04     4.82864677e-05     1.18080974e-05 
   -2.01806980e-04     4.82861965e-05    -1.18216175e-05 
   -1.93562612e-04     5.09700172e-05    -3.06704666e-05 
   -1.82310207e-04     5.40106157e-05    -4.64909888e-05 
   -1.67407775e-04     5.73611333e-05    -5.69402846e-05 
   -1.56051055e-04     6.07160626e-05    -7.44116544e-05 
   -1.69747121e-04     5.13955074e-05     6.81282911e-05 
   -1.82121231e-04     4.77334604e-05     5.29498303e-05 
   -1.99410907e-04     4.57542090e-05     4.51144657e-05 
   -2.11242947e-04     4.41004619e-05     3.09213456e-05 
   -2.20000838e-04     4.28981205e-05     1.14115753e-05 
   -2.20001014e-04     4.28983527e-05    -1.14255179e-05 
   -2.11243931e-04     4.40978006e-05    -3.09314609e-05 
   -1.99410797e-04     4.57786512e-05    -4.51444172e-05 
   -1.82125490e-04     4.77383236e-05    -5.29543074e-05 
   -1.69752903e-04     5.13954390e-05    -6.81339080e-05 
   -1.79906423e-04     3.53986138e-05     6.53222622e-05 
   -1.93116591e-04     3.19148517e-05     5.04294177e-05 
   -2.11035556e-04     3.19574004e-05     4.37698232e-05 
   -2.22845991e-04     3.04637748e-05     3.00349979e-05 
   -2.32412422e-04     2.97961797e-05     1.14408287e-05 
   -2.32412772e-04     2.97950715e-05    -1.14558677e-05 
   -2.22845534e-04     3.04839410e-05    -3.00658648e-05 
   -2.11036972e-04     3.19583596e-05    -4.37733825e-05 
   -1.93118627e-04     3.19130624e-05    -5.04355684e-05 
   -1.79908582e-04     3.53986933e-05    -6.53273632e-05 
   -1.87755763e-04     1.26911442e-05     6.18076256e-05 
   -2.01134945e-04     1.21337060e-05     4.76336084e-05 
   -2.19592735e-04     1.15062233e-05     4.24912816e-05 
   -2.32272813e-04     1.17006342e-05     2.94309239e-05 
   -2.41213842e-04     1.08548693e-05     1.07659400e-05 
   -2.41213670e-04     1.08802783e-05    -1.08075318e-05 
   -2.32273469e-04     1.17009343e-05    -2.94418243e-05 
   -2.19593888e-04     1.15043946e-05    -4.24980033e-05 
   -2.01136500e-04     1.21339320e-05    -4.76394542e-05 
   -1.87757675e-04     1.26882240e-05    -6.18135060e-05 
   -1.87755763e-04    -1.26911442e-05     6.18076256e-05 
   -2.01134945e-04    -1.21337060e-05     4.76336084e-05 
   -2.19592735e-04    -1.15062233e-05     4.24912816e-05 
   -2.32272813e-04    -1.17006342e-05     2.94309239e-05 
   -2.41213842e-04    -1.08548693e-05     1.07659400e-05 
   -2.41213670e-04    -1.08802783e-05    -1.08075318e-05 
   -2.32273469e-04    -1.17009343e-05    -2.94418243e-05 
   -2.19593888e-04    -1.15043946e-05    -4.24980033e-05 
   -2.01136500e-04    -1.21339320e-05    -4.76394542e-05 
   -1.87757675e-04    -1.26882240e-05    -6.18135060e-05 
   -1.79906423e-04    -3.53986138e-05     6.53222622e-05 
   -1.93116591e-04    -3.19148517e-05     5.04294177e-05 
   -2.11035556e-04    -3.19574004e-05     4.37698232e-05 
   -2.22845991e-04    -3.04637748e-05     3.00349979e-05 
   -2.32412422e-04    -2.97961797e-05     1.14408287e-05 
   -2.32412772e-04    -2.97950715e-05    -1.14558677e-05 
   -2.22845534e-04    -3.04839410e-05    -3.00658648e-05 
   -2.11036972e-04    -3.19583596e-05    -4.37733825e-05 
   -1.93118627e-04    -3.19130624e-05    -5.04355684e-05 
   -1.79908582e-04    -3.53986933e-05    -6.53273632e-05 
   -1.69747121e-04    -5.13955074e-05     6.81282911e-05 
   -1.82121231e-04    -4.77334604e-05     5.29498303e-05 
   -1.99410907e-04    -4.57542090e-05     4.51144657e-05 
   -2.11242947e-04    -4.41004619e-05     3.09213456e-05 
   -2.20000838e-04    -4.28981205e-05     1.14115753e-05 
   -2.20001014e-04    -4.28983527e-05    -1.14255179e-05 
   -2.11243931e-04    -4.40978006e-05    -3.09314609e-05 
   -1.99410797e-04    -4.57786512e-05    -4.51444172e-05 
   -1.82125490e-04    -4.77383236e-05    -5.29543074e-05 
   -1.69752903e-04    -5.13954390e-05    -6.81339080e-05 
   -1.56043598e-04    -6.07118762e-05     7.44108057e-05 
   -1.67406838e-04    -5.73320009e-05     5.69056055e-05 
   -1.82306259e-04    -5.40110104e-05     4.64806675e-05 
   -1.93561254e-04    -5.09699638e-05     3.06622992e-05 
   -2.01806638e-04    -4.82864677e-05     1.18080974e-05 
   -2.01806980e-04    -4.82861965e-05    -1.18216175e-05 
   -1.93562612e-04    -5.09700172e-05    -3.06704666e-05 
   -1.82310207e-04    -5.40106157e-05    -4.64909888e-05 
   -1.67407775e-04    -5.73611333e-05    -5.69402846e-05 
   -1.56051055e-04    -6.07160626e-05    -7.44116544e-05 
   -1.45884517e-04    -7.50096477e-05     7.71677233e-05 
   -1.57836196e-04    -7.44804990e-05     5.89377606e-05 
   -1.71259512e-04    -6.87186685e-05     4.99861729e-05 
   -1.81445850e-04    -6.60425328e-05     3.23430513e-05 
   -1.89319696e-04    -6.25274024e-05     1.23242396e-05 
   -1.89320030e-04    -6.25293985e-05    -1.23356887e-05 
   -1.81446381e-04    -6.60416216e-05    -3.23507571e-05 
   -1.71263671e-04    -6.87188395e-05    -4.99935076e-05 
   -1.57841335e-04    -7.44773998e-05    -5.89465257e-05 
   -1.45768347e-04    -7.49573399e-05    -7.71600840e-05 
   -1.07265159e-04     7.61469458e-05     7.89344931e-05 
   -1.20285005e-04     7.68729734e-05     6.89907337e-05 
   -1.31099901e-04     7.16855761e-05     5.54864900e-05 
   -1.39588373e-04     6.82598170e-05     3.73825401e-05 
   -1.43312454e-04     6.47502143e-05     1.38384470e-05 
   -1.43312533e-04     6.47511224e-05    -1.38406984e-05 
   -1.39590697e-04     6.82602948e-05    -3.73814496e-05 
   -1.31102544e-04     7.16864596e-05    -5.54837515e-05 
   -1.20287065e-04     7.68699647e-05    -6.89923122e-05 
   -1.07232261e-04     7.61394932e-05    -7.89268960e-05 
   -1.18400960e-04     6.94316670e-05     7.69303048e-05 
   -1.31570609e-04     6.63314786e-05     6.68673789e-05 
   -1.42878035e-04     6.47372916e-05     5.40869028e-05 
   -1.52269265e-04     6.21591586e-05     3.55668238e-05 
   -1.56184722e-04     5.98446676e-05     1.31555697e-05 
   -1.56184914e-04     5.98448629e-05    -1.31586416e-05 
   -1.52271382e-04     6.21588166e-05    -3.55668916e-05 
   -1.42876133e-04     6.47368203e-05    -5.40883218e-05 
   -1.31585356e-04     6.63229563e-05    -6.68619178e-05 
   -1.18403585e-04     6.94332649e-05    -7.69286289e-05 
   -1.30073939e-04     5.59169438e-05     7.14833377e-05 
   -1.42855486e-04     5.48994310e-05     6.41576315e-05 
   -1.56345375e-04     5.19686955e-05     5.18188415e-05 
   -1.65151338e-04     5.13387911e-05     3.52108983e-05 
   -1.69741492e-04     5.03985515e-05     1.29736827e-05 
   -1.69742321e-04     5.03985566e-05    -1.29781302e-05 
   -1.65151242e-04     5.13372302e-05    -3.52143794e-05 
   -1.56348698e-04     5.19685816e-05    -5.18212148e-05 
   -1.42854724e-04     5.48991436e-05    -6.41589705e-05 
   -1.30079284e-04     5.59124024e-05    -7.14873112e-05 
   -1.38009435e-04     3.86161485e-05     6.80558947e-05 
   -1.51549306e-04     3.59810976e-05     6.22594218e-05 
   -1.64950996e-04     3.57586887e-05     5.13173810e-05 
   -1.74828154e-04     3.40548733e-05     3.39678302e-05 
   -1.79311496e-04     3.43625229e-05     1.30611665e-05 
   -1.79310756e-04     3.43618934e-05    -1.30676574e-05 
   -1.74831545e-04     3.40561739e-05    -3.39735932e-05 
   -1.64950476e-04     3.57585231e-05    -5.13182999e-05 
   -1.51551085e-04     3.59772401e-05    -6.22626649e-05 
   -1.38012330e-04     3.86127535e-05    -6.80599812e-05 
   -1.42098756e-04     1.39933747e-05     6.45669730e-05 
   -1.55517250e-04     1.35646581e-05     5.97518030e-05 
   -1.69458362e-04     1.29778786e-05     5.04081422e-05 
   -1.79127553e-04     1.32908798e-05     3.42860843e-05 
   -1.83896629e-04     1.24500905e-05     1.24506737e-05 
   -1.83898143e-04     1.24539072e-05    -1.24628374e-05 
   -1.79127863e-04     1.32911178e-05    -3.42909055e-05 
   -1.69459644e-04     1.29758946e-05    -5.04107767e-05 
   -1.55518786e-04     1.35632901e-05    -5.97542561e-05 
   -1.42101387e-04     1.39901664e-05    -6.45705652e-05 
   -1.42098756e-04    -1.39933747e-05     6.45669730e-05 
   -1.55517250e-04    -1.35646581e-05     5.97518030e-05 
   -1.69458362e-04    -1.29778786e-05     5.04081422e-05 
   -1.79127553e-04    -1.32908798e-05     3.42860843e-05 
   -1.83896629e-04    -1.24500905e-05     1.24506737e-05 
   -1.83898143e-04    -1.24539072e-05    -1.24628374e-05 
   -1.79127863e-04    -1.32911178e-05    -3.42909055e-05 
   -1.69459644e-04    -1.29758946e-05    -5.04107767e-05 
   -1.55518786e-04    -1.35632901e-05    -5.97542561e-05 
   -1.42101387e-04    -1.39901664e-05    -6.45705652e-05 
   -1.38009435e-04    -3.86161485e-05     6.80558947e-05 
   -1.51549306e-04    -3.59810976e-05     6.22594218e-05 
   -1.64950996e-04    -3.57586887e-05     5.13173810e-05 
   -1.74828154e-04    -3.40548733e-05     3.39678302e-05 
   -1.79311496e-04    -3.43625229e-05     1.30611665e-05 
   -1.79310756e-04    -3.43618934e-05    -1.30676574e-05 
   -1.74831545e-04    -3.40561739e-05    -3.39735932e-05 
   -1.64950476e-04    -3.57585231e-05    -5.13182999e-05 
   -1.51551085e-04    -3.59772401e-05    -6.22626649e-05 
   -1.38012330e-04    -3.86127535e-05    -6.80599812e-05 
   -1.30073939e-04    -5.59169438e-05     7.14833377e-05 
   -1.42855486e-04    -5.48994310e-05     6.41576315e-05 
   -1.56345375e-04    -5.19686955e-05     5.18188415e-05 
   -1.65151338e-04    -5.13387911e-05     3.52108983e-05 
   -1.69741492e-04    -5.03985515e-05     1.29736827e-05 
   -1.69742321e-04    -5.03985566e-05    -1.29781302e-05 
   -1.65151242e-04    -5.13372302e-05    -3.52143794e-05 
   -1.56348698e-04    -5.19685816e-05    -5.18212148e-05 
   -1.42854724e-04    -5.48991436e-05    -6.41589705e-05 
   -1.30079284e-04    -5.59124024e-05    -7.14873112e-05 
   -1.18400960e-04    -6.94316670e-05     7.69303048e-05 
   -1.31570609e-04    -6.63314786e-05     6.68673789e-05 
   -1.42878035e-04    -6.47372916e-05     5.40869028e-05 
   -1.52269265e-04    -6.21591586e-05     3.55668238e-05 
   -1.56184722e-04    -5.98446676e-05     1.31555697e-05 
   -1.56184914e-04    -5.98448629e-05    -1.31586416e-05 
   -1.52271382e-04    -6.21588166e-05    -3.55668916e-05 
   -1.42876133e-04    -6.47368203e-05    -5.40883218e-05 
   -1.31585356e-04    -6.63229563e-05    -6.68619178e-05 
   -1.18403585e-04    -6.94332649e-05    -7.69286289e-05 
   -1.07265159e-04    -7.61469458e-05     7.89344931e-05 
   -1.20285005e-04    -7.68729734e-05     6.89907337e-05 
   -1.31099901e-04    -7.16855761e-05     5.54864900e-05 
   -1.39588373e-04    -6.82598170e-05     3.73825401e-05 
   -1.43312454e-04    -6.47502143e-05     1.38384470e-05 
   -1.43312533e-04    -6.47511224e-05    -1.38406984e-05 
   -1.39590697e-04    -6.82602948e-05    -3.73814496e-05 
   -1.31102544e-04    -7.16864596e-05    -5.54837515e-05 
   -1.20287065e-04    -7.68699647e-05    -6.89923122e-05 
   -1.07232261e-04    -7.61394932e-05    -7.89268960e-05 
   -6.92036436e-05     8.85211709e-05     8.98980084e-05 
   -8.24298787e-05     8.97672337e-05     7.86039954e-05 
   -8.93374061e-05     8.53219230e-05     6.48903348e-05 
   -9.30711369e-05     8.16130976e-05     4.37664803e-05 
   -9.29776734e-05     7.87642433e-05     1.52713458e-05 
   -9.29796042e-05     7.87650294e-05    -1.52741789e-05 
   -9.30734120e-05     8.16133155e-05    -4.37683110e-05 
   -8.93370020e-05     8.53205766e-05    -6.48929297e-05 
   -8.24284277e-05     8.97655428e-05    -7.86060921e-05 
   -6.91784914e-05     8.85194040e-05    -8.98972464e-05 
   -8.22487724e-05     7.90537227e-05     8.96650386e-05 
   -9.57645132e-05     7.72140877e-05     7.70844504e-05 
   -1.02749483e-04     7.53197278e-05     6.38694462e-05 
   -1.07158970e-04     7.33028604e-05     4.27746475e-05 
   -1.07533734e-04     7.17892565e-05     1.50139555e-05 
   -1.07534439e-04     7.17892768e-05    -1.50164007e-05 
   -1.07158601e-04     7.33021281e-05    -4.27774337e-05 
   -1.02751187e-04     7.53185510e-05    -6.38685205e-05 
   -9.57731451e-05     7.72106713e-05    -7.70823600e-05 
   -8.22487294e-05     7.90553295e-05    -8.96646556e-05 
   -8.81613597e-05     6.50664210e-05     8.53748691e-05 
   -1.02341267e-04     6.39916498e-05     7.50992817e-05 
   -1.09430770e-04     6.06385753e-05     6.05644642e-05 
   -1.13671160e-04     6.05477987e-05     4.21160097e-05 
   -1.13987977e-04     6.00753268e-05     1.46222733e-05 
   -1.13987430e-04     6.00750021e-05    -1.46267509e-05 
   -1.13672650e-04     6.05468548e-05    -4.21171341e-05 
   -1.09437924e-04     6.06364507e-05    -6.05644623e-05 
   -1.02343321e-04     6.39892008e-05    -7.51001450e-05 
   -8.81630356e-05     6.50665196e-05    -8.53754366e-05 
   -9.17182090e-05     4.52803374e-05     8.15761494e-05 
   -1.06681095e-04     4.33780141e-05     7.33855432e-05 
   -1.13359434e-04     4.24929796e-05     6.07095196e-05 
   -1.18790384e-04     4.11888593e-05     4.11668294e-05 
   -1.18693268e-04     4.18394309e-05     1.47073947e-05 
   -1.18694777e-04     4.18387597e-05    -1.47122795e-05 
   -1.18794856e-04     4.11907284e-05    -4.11726592e-05 
   -1.13360989e-04     4.24912724e-05    -6.07110751e-05 
   -1.06680934e-04     4.33777480e-05    -7.33874070e-05 
   -9.17214320e-05     4.52791178e-05    -8.15788938e-05 
   -9.18461690e-05     1.56819858e-05     7.87280733e-05 
   -1.07021098e-04     1.51397485e-05     7.18925221e-05 
   -1.13636640e-04     1.46383084e-05     6.03569663e-05 
   -1.18627274e-04     1.47949357e-05     4.18424016e-05 
   -1.19155858e-04     1.43623562e-05     1.43066934e-05 
   -1.19157613e-04     1.43665900e-05    -1.43156323e-05 
   -1.18627232e-04     1.47931399e-05    -4.18466188e-05 
   -1.13635308e-04     1.46383498e-05    -6.03591947e-05 
   -1.07021971e-04     1.51393405e-05    -7.18951686e-05 
   -9.18478108e-05     1.56804438e-05    -7.87308502e-05 
   -9.18461690e-05    -1.56819858e-05     7.87280733e-05 
   -1.07021098e-04    -1.51397485e-05     7.18925221e-05 
   -1.13636640e-04    -1.46383084e-05     6.03569663e-05 
   -1.18627274e-04    -1.47949357e-05     4.18424016e-05 
   -1.19155858e-04    -1.43623562e-05     1.43066934e-05 
   -1.19157613e-04    -1.43665900e-05    -1.43156323e-05 
   -1.18627232e-04    -1.47931399e-05    -4.18466188e-05 
   -1.13635308e-04    -1.46383498e-05    -6.03591947e-05 
   -1.07021971e-04    -1.51393405e-05    -7.18951686e-05 
   -9.18478108e-05    -1.56804438e-05    -7.87308502e-05 
   -9.17182090e-05    -4.52803374e-05     8.15761494e-05 
   -1.06681095e-04    -4.33780141e-05     7.33855432e-05 
   -1.13359434e-04    -4.24929796e-05     6.07095196e-05 
   -1.18790384e-04    -4.11888593e-05     4.11668294e-05 
   -1.18693268e-04    -4.18394309e-05     1.47073947e-05 
   -1.18694777e-04    -4.18387597e-05    -1.47122795e-05 
   -1.18794856e-04    -4.11907284e-05    -4.11726592e-05 
   -1.13360989e-04    -4.24912724e-05    -6.07110751e-05 
   -1.06680934e-04    -4.33777480e-05    -7.33874070e-05 
   -9.17214320e-05    -4.52791178e-05    -8.15788938e-05 
   -8.81613597e-05    -6.50664210e-05     8.53748691e-05 
   -1.02341267e-04    -6.39916498e-05     7.50992817e-05 
   -1.09430770e-04    -6.06385753e-05     6.05644642e-05 
   -1.13671160e-04    -6.05477987e-05     4.21160097e-05 
   -1.13987977e-04    -6.00753268e-05     1.46222733e-05 
   -1.13987430e-04    -6.00750021e-05    -1.46267509e-05 
   -1.13672650e-04    -6.05468548e-05    -4.21171341e-05 
   -1.09437924e-04    -6.06364507e-05    -6.05644623e-05 
   -1.02343321e-04    -6.39892008e-05    -7.51001450e-05 
   -8.81630356e-05    -6.50665196e-05    -8.53754366e-05 
   -8.22487724e-05    -7.90537227e-05     8.96650386e-05 
   -9.57645132e-05    -7.72140877e-05     7.70844504e-05 
   -1.02749483e-04    -7.53197278e-05     6.38694462e-05 
   -1.07158970e-04    -7.33028604e-05     4.27746475e-05 
   -1.07533734e-04    -7.17892565e-05     1.50139555e-05 
   -1.07534439e-04    -7.17892768e-05    -1.50164007e-05 
   -1.07158601e-04    -7.33021281e-05    -4.27774337e-05 
   -1.02751187e-04    -7.53185510e-05    -6.38685205e-05 
   -9.57731451e-05    -7.72106713e-05    -7.70823600e-05 
   -8.22487294e-05    -7.90553295e-05    -8.96646556e-05 
   -6.92036436e-05    -8.85211709e-05     8.98980084e-05 
   -8.24298787e-05    -8.97672337e-05     7.86039954e-05 
   -8.93374061e-05    -8.53219230e-05     6.48903348e-05 
   -9.30711369e-05    -8.16130976e-05     4.37664803e-05 
   -9.29776734e-05    -7.87642433e-05     1.52713458e-05 
   -9.29796042e-05    -7.87650294e-05    -1.52741789e-05 
   -9.30734120e-05    -8.16133155e-05    -4.37683110e-05 
   -8.93370020e-05    -8.53205766e-05    -6.48929297e-05 
   -8.24284277e-05    -8.97655428e-05    -7.86060921e-05 
   -6.91784914e-05    -8.85194040e-05    -8.98972464e-05 
   -3.32704825e-05     1.01293509e-04     1.01412101e-04 
   -4.31238316e-05     1.02429740e-04     9.02358378e-05 
   -4.62920019e-05     9.91198363e-05     7.01194119e-05 
   -4.61697296e-05     9.57993927e-05     4.59416161e-05 
   -4.49781490e-05     9.34962241e-05     1.58413708e-05 
   -4.49781885e-05     9.34960438e-05    -1.58447496e-05 
   -4.61693436e-05     9.57983825e-05    -4.59456754e-05 
   -4.62908223e-05     9.91194433e-05    -7.01233633e-05 
   -4.31231348e-05     1.02429869e-04    -9.02398175e-05 
   -3.32494755e-05     1.01294703e-04    -1.01414618e-04 
   -4.17405063e-05     9.07070224e-05     1.02352847e-04 
   -5.19774530e-05     8.72262110e-05     8.72509778e-05 
   -5.50574370e-05     8.67970878e-05     6.95023365e-05 
   -5.52571281e-05     8.47202433e-05     4.48406774e-05 
   -5.42794989e-05     8.35221534e-05     1.56918088e-05 
   -5.42783357e-05     8.35221987e-05    -1.56950572e-05 
   -5.52588263e-05     8.47196343e-05    -4.48414272e-05 
   -5.50587620e-05     8.67968301e-05    -6.95028061e-05 
   -5.19856311e-05     8.72255633e-05    -8.72522777e-05 
   -4.17399246e-05     9.07099322e-05    -1.02354709e-04 
   -4.53960185e-05     7.06215377e-05     9.91340974e-05 
   -5.50403211e-05     6.96182268e-05     8.68652751e-05 
   -5.93656295e-05     6.68079460e-05     6.67861804e-05 
   -5.91465507e-05     6.68060006e-05     4.47375952e-05 
   -5.81080668e-05     6.67404687e-05     1.52283258e-05 
   -5.81089119e-05     6.67398236e-05    -1.52312570e-05 
   -5.91480733e-05     6.68055780e-05    -4.47387149e-05 
   -5.93723640e-05     6.68073608e-05    -6.67869998e-05 
   -5.50425388e-05     6.96177527e-05    -8.68669697e-05 
   -4.53961323e-05     7.06244843e-05    -9.91357970e-05 
   -4.51542009e-05     4.71014935e-05     9.58870596e-05 
   -5.50374490e-05     4.51114839e-05     8.47473003e-05 
   -5.89506064e-05     4.48154774e-05     6.69748668e-05 
   -5.95327702e-05     4.35813294e-05     4.36666417e-05 
   -5.82896521e-05     4.42010545e-05     1.55831194e-05 
   -5.82896330e-05     4.42011661e-05    -1.55861782e-05 
   -5.95366148e-05     4.35804858e-05    -4.36697315e-05 
   -5.89517188e-05     4.48141201e-05    -6.69761371e-05 
   -5.50395458e-05     4.51095084e-05    -8.47489461e-05 
   -4.51550292e-05     4.71024062e-05    -9.58885872e-05 
   -4.39353174e-05     1.65038046e-05     9.35363200e-05 
   -5.39076944e-05     1.60008989e-05     8.37242079e-05 
   -5.78917398e-05     1.52986800e-05     6.69945525e-05 