# vtk DataFile Version 2.0 
generated by Lattice Boltzmann Method time =   1.15470054e+00
ASCII 
DATASET UNSTRUCTURED_GRID

POINTS   1000 FLOAT 
  0.00000000e+00   0.00000000e+00   0.00000000e+00 
  0.00000000e+00   0.00000000e+00   1.00000000e-01 
  0.00000000e+00   0.00000000e+00   2.00000000e-01 
  0.00000000e+00   0.00000000e+00   3.00000000e-01 
  0.00000000e+00   0.00000000e+00   4.00000000e-01 
  0.00000000e+00   0.00000000e+00   5.00000000e-01 
  0.00000000e+00   0.00000000e+00   6.00000000e-01 
  0.00000000e+00   0.00000000e+00   7.00000000e-01 
  0.00000000e+00   0.00000000e+00   8.00000000e-01 
  0.00000000e+00   0.00000000e+00   9.00000000e-01 
  0.00000000e+00   1.00000000e-01   0.00000000e+00 
  0.00000000e+00   1.00000000e-01   1.00000000e-01 
  0.00000000e+00   1.00000000e-01   2.00000000e-01 
  0.00000000e+00   1.00000000e-01   3.00000000e-01 
  0.00000000e+00   1.00000000e-01   4.00000000e-01 
  0.00000000e+00   1.00000000e-01   5.00000000e-01 
  0.00000000e+00   1.00000000e-01   6.00000000e-01 
  0.00000000e+00   1.00000000e-01   7.00000000e-01 
  0.00000000e+00   1.00000000e-01   8.00000000e-01 
  0.00000000e+00   1.00000000e-01   9.00000000e-01 
  0.00000000e+00   2.00000000e-01   0.00000000e+00 
  0.00000000e+00   2.00000000e-01   1.00000000e-01 
  0.00000000e+00   2.00000000e-01   2.00000000e-01 
  0.00000000e+00   2.00000000e-01   3.00000000e-01 
  0.00000000e+00   2.00000000e-01   4.00000000e-01 
  0.00000000e+00   2.00000000e-01   5.00000000e-01 
  0.00000000e+00   2.00000000e-01   6.00000000e-01 
  0.00000000e+00   2.00000000e-01   7.00000000e-01 
  0.00000000e+00   2.00000000e-01   8.00000000e-01 
  0.00000000e+00   2.00000000e-01   9.00000000e-01 
  0.00000000e+00   3.00000000e-01   0.00000000e+00 
  0.00000000e+00   3.00000000e-01   1.00000000e-01 
  0.00000000e+00   3.00000000e-01   2.00000000e-01 
  0.00000000e+00   3.00000000e-01   3.00000000e-01 
  0.00000000e+00   3.00000000e-01   4.00000000e-01 
  0.00000000e+00   3.00000000e-01   5.00000000e-01 
  0.00000000e+00   3.00000000e-01   6.00000000e-01 
  0.00000000e+00   3.00000000e-01   7.00000000e-01 
  0.00000000e+00   3.00000000e-01   8.00000000e-01 
  0.00000000e+00   3.00000000e-01   9.00000000e-01 
  0.00000000e+00   4.00000000e-01   0.00000000e+00 
  0.00000000e+00   4.00000000e-01   1.00000000e-01 
  0.00000000e+00   4.00000000e-01   2.00000000e-01 
  0.00000000e+00   4.00000000e-01   3.00000000e-01 
  0.00000000e+00   4.00000000e-01   4.00000000e-01 
  0.00000000e+00   4.00000000e-01   5.00000000e-01 
  0.00000000e+00   4.00000000e-01   6.00000000e-01 
  0.00000000e+00   4.00000000e-01   7.00000000e-01 
  0.00000000e+00   4.00000000e-01   8.00000000e-01 
  0.00000000e+00   4.00000000e-01   9.00000000e-01 
  0.00000000e+00   5.00000000e-01   0.00000000e+00 
  0.00000000e+00   5.00000000e-01   1.00000000e-01 
  0.00000000e+00   5.00000000e-01   2.00000000e-01 
  0.00000000e+00   5.00000000e-01   3.00000000e-01 
  0.00000000e+00   5.00000000e-01   4.00000000e-01 
  0.00000000e+00   5.00000000e-01   5.00000000e-01 
  0.00000000e+00   5.00000000e-01   6.00000000e-01 
  0.00000000e+00   5.00000000e-01   7.00000000e-01 
  0.00000000e+00   5.00000000e-01   8.00000000e-01 
  0.00000000e+00   5.00000000e-01   9.00000000e-01 
  0.00000000e+00   6.00000000e-01   0.00000000e+00 
  0.00000000e+00   6.00000000e-01   1.00000000e-01 
  0.00000000e+00   6.00000000e-01   2.00000000e-01 
  0.00000000e+00   6.00000000e-01   3.00000000e-01 
  0.00000000e+00   6.00000000e-01   4.00000000e-01 
  0.00000000e+00   6.00000000e-01   5.00000000e-01 
  0.00000000e+00   6.00000000e-01   6.00000000e-01 
  0.00000000e+00   6.00000000e-01   7.00000000e-01 
  0.00000000e+00   6.00000000e-01   8.00000000e-01 
  0.00000000e+00   6.00000000e-01   9.00000000e-01 
  0.00000000e+00   7.00000000e-01   0.00000000e+00 
  0.00000000e+00   7.00000000e-01   1.00000000e-01 
  0.00000000e+00   7.00000000e-01   2.00000000e-01 
  0.00000000e+00   7.00000000e-01   3.00000000e-01 
  0.00000000e+00   7.00000000e-01   4.00000000e-01 
  0.00000000e+00   7.00000000e-01   5.00000000e-01 
  0.00000000e+00   7.00000000e-01   6.00000000e-01 
  0.00000000e+00   7.00000000e-01   7.00000000e-01 
  0.00000000e+00   7.00000000e-01   8.00000000e-01 
  0.00000000e+00   7.00000000e-01   9.00000000e-01 
  0.00000000e+00   8.00000000e-01   0.00000000e+00 
  0.00000000e+00   8.00000000e-01   1.00000000e-01 
  0.00000000e+00   8.00000000e-01   2.00000000e-01 
  0.00000000e+00   8.00000000e-01   3.00000000e-01 
  0.00000000e+00   8.00000000e-01   4.00000000e-01 
  0.00000000e+00   8.00000000e-01   5.00000000e-01 
  0.00000000e+00   8.00000000e-01   6.00000000e-01 
  0.00000000e+00   8.00000000e-01   7.00000000e-01 
  0.00000000e+00   8.00000000e-01   8.00000000e-01 
  0.00000000e+00   8.00000000e-01   9.00000000e-01 
  0.00000000e+00   9.00000000e-01   0.00000000e+00 
  0.00000000e+00   9.00000000e-01   1.00000000e-01 
  0.00000000e+00   9.00000000e-01   2.00000000e-01 
  0.00000000e+00   9.00000000e-01   3.00000000e-01 
  0.00000000e+00   9.00000000e-01   4.00000000e-01 
  0.00000000e+00   9.00000000e-01   5.00000000e-01 
  0.00000000e+00   9.00000000e-01   6.00000000e-01 
  0.00000000e+00   9.00000000e-01   7.00000000e-01 
  0.00000000e+00   9.00000000e-01   8.00000000e-01 
  0.00000000e+00   9.00000000e-01   9.00000000e-01 
  1.00000000e-01   0.00000000e+00   0.00000000e+00 
  1.00000000e-01   0.00000000e+00   1.00000000e-01 
  1.00000000e-01   0.00000000e+00   2.00000000e-01 
  1.00000000e-01   0.00000000e+00   3.00000000e-01 
  1.00000000e-01   0.00000000e+00   4.00000000e-01 
  1.00000000e-01   0.00000000e+00   5.00000000e-01 
  1.00000000e-01   0.00000000e+00   6.00000000e-01 
  1.00000000e-01   0.00000000e+00   7.00000000e-01 
  1.00000000e-01   0.00000000e+00   8.00000000e-01 
  1.00000000e-01   0.00000000e+00   9.00000000e-01 
  1.00000000e-01   1.00000000e-01   0.00000000e+00 
  1.00000000e-01   1.00000000e-01   1.00000000e-01 
  1.00000000e-01   1.00000000e-01   2.00000000e-01 
  1.00000000e-01   1.00000000e-01   3.00000000e-01 
  1.00000000e-01   1.00000000e-01   4.00000000e-01 
  1.00000000e-01   1.00000000e-01   5.00000000e-01 
  1.00000000e-01   1.00000000e-01   6.00000000e-01 
  1.00000000e-01   1.00000000e-01   7.00000000e-01 
  1.00000000e-01   1.00000000e-01   8.00000000e-01 
  1.00000000e-01   1.00000000e-01   9.00000000e-01 
  1.00000000e-01   2.00000000e-01   0.00000000e+00 
  1.00000000e-01   2.00000000e-01   1.00000000e-01 
  1.00000000e-01   2.00000000e-01   2.00000000e-01 
  1.00000000e-01   2.00000000e-01   3.00000000e-01 
  1.00000000e-01   2.00000000e-01   4.00000000e-01 
  1.00000000e-01   2.00000000e-01   5.00000000e-01 
  1.00000000e-01   2.00000000e-01   6.00000000e-01 
  1.00000000e-01   2.00000000e-01   7.00000000e-01 
  1.00000000e-01   2.00000000e-01   8.00000000e-01 
  1.00000000e-01   2.00000000e-01   9.00000000e-01 
  1.00000000e-01   3.00000000e-01   0.00000000e+00 
  1.00000000e-01   3.00000000e-01   1.00000000e-01 
  1.00000000e-01   3.00000000e-01   2.00000000e-01 
  1.00000000e-01   3.00000000e-01   3.00000000e-01 
  1.00000000e-01   3.00000000e-01   4.00000000e-01 
  1.00000000e-01   3.00000000e-01   5.00000000e-01 
  1.00000000e-01   3.00000000e-01   6.00000000e-01 
  1.00000000e-01   3.00000000e-01   7.00000000e-01 
  1.00000000e-01   3.00000000e-01   8.00000000e-01 
  1.00000000e-01   3.00000000e-01   9.00000000e-01 
  1.00000000e-01   4.00000000e-01   0.00000000e+00 
  1.00000000e-01   4.00000000e-01   1.00000000e-01 
  1.00000000e-01   4.00000000e-01   2.00000000e-01 
  1.00000000e-01   4.00000000e-01   3.00000000e-01 
  1.00000000e-01   4.00000000e-01   4.00000000e-01 
  1.00000000e-01   4.00000000e-01   5.00000000e-01 
  1.00000000e-01   4.00000000e-01   6.00000000e-01 
  1.00000000e-01   4.00000000e-01   7.00000000e-01 
  1.00000000e-01   4.00000000e-01   8.00000000e-01 
  1.00000000e-01   4.00000000e-01   9.00000000e-01 
  1.00000000e-01   5.00000000e-01   0.00000000e+00 
  1.00000000e-01   5.00000000e-01   1.00000000e-01 
  1.00000000e-01   5.00000000e-01   2.00000000e-01 
  1.00000000e-01   5.00000000e-01   3.00000000e-01 
  1.00000000e-01   5.00000000e-01   4.00000000e-01 
  1.00000000e-01   5.00000000e-01   5.00000000e-01 
  1.00000000e-01   5.00000000e-01   6.00000000e-01 
  1.00000000e-01   5.00000000e-01   7.00000000e-01 
  1.00000000e-01   5.00000000e-01   8.00000000e-01 
  1.00000000e-01   5.00000000e-01   9.00000000e-01 
  1.00000000e-01   6.00000000e-01   0.00000000e+00 
  1.00000000e-01   6.00000000e-01   1.00000000e-01 
  1.00000000e-01   6.00000000e-01   2.00000000e-01 
  1.00000000e-01   6.00000000e-01   3.00000000e-01 
  1.00000000e-01   6.00000000e-01   4.00000000e-01 
  1.00000000e-01   6.00000000e-01   5.00000000e-01 
  1.00000000e-01   6.00000000e-01   6.00000000e-01 
  1.00000000e-01   6.00000000e-01   7.00000000e-01 
  1.00000000e-01   6.00000000e-01   8.00000000e-01 
  1.00000000e-01   6.00000000e-01   9.00000000e-01 
  1.00000000e-01   7.00000000e-01   0.00000000e+00 
  1.00000000e-01   7.00000000e-01   1.00000000e-01 
  1.00000000e-01   7.00000000e-01   2.00000000e-01 
  1.00000000e-01   7.00000000e-01   3.00000000e-01 
  1.00000000e-01   7.00000000e-01   4.00000000e-01 
  1.00000000e-01   7.00000000e-01   5.00000000e-01 
  1.00000000e-01   7.00000000e-01   6.00000000e-01 
  1.00000000e-01   7.00000000e-01   7.00000000e-01 
  1.00000000e-01   7.00000000e-01   8.00000000e-01 
  1.00000000e-01   7.00000000e-01   9.00000000e-01 
  1.00000000e-01   8.00000000e-01   0.00000000e+00 
  1.00000000e-01   8.00000000e-01   1.00000000e-01 
  1.00000000e-01   8.00000000e-01   2.00000000e-01 
  1.00000000e-01   8.00000000e-01   3.00000000e-01 
  1.00000000e-01   8.00000000e-01   4.00000000e-01 
  1.00000000e-01   8.00000000e-01   5.00000000e-01 
  1.00000000e-01   8.00000000e-01   6.00000000e-01 
  1.00000000e-01   8.00000000e-01   7.00000000e-01 
  1.00000000e-01   8.00000000e-01   8.00000000e-01 
[...]
POINT_DATA   1000
FIELD solution 1
u 3   1000 DOUBLE
   -6.37393267e-05     1.52859045e-05     2.17901239e-05 
   -6.52522925e-05     1.96608762e-05     8.74775569e-06 
   -7.21796716e-05     1.85754627e-05     5.78889925e-06 
   -7.70678262e-05     1.89375452e-05     1.65466713e-06 
   -7.96207477e-05     1.83666492e-05     2.51996938e-06 
   -7.96220458e-05     1.83674188e-05    -2.53260255e-06 
   -7.70697308e-05     1.89354460e-05    -1.66687611e-06 
   -7.21846158e-05     1.85749811e-05    -5.80144608e-06 
   -6.52586156e-05     1.96567555e-05    -8.76399440e-06 
   -6.36178100e-05     1.52266462e-05    -2.17878834e-05 
   -6.45740056e-05     1.01431489e-05     1.92730526e-05 
   -6.81044202e-05     7.60939693e-06     8.06160965e-06 
   -7.53661359e-05     8.13452722e-06     4.56417472e-06 
   -8.05069210e-05     5.78587333e-06     2.66174615e-06 
   -8.30479995e-05     5.65241910e-06     1.88273726e-06 
   -8.30486838e-05     5.65272844e-06    -1.89593053e-06 
   -8.05095635e-05     5.78503513e-06    -2.67288904e-06 
   -7.53706237e-05     8.13420731e-06    -4.57673851e-06 
   -6.81034896e-05     7.64336120e-06    -8.10554676e-06 
   -6.45834188e-05     1.01512249e-05    -1.92799268e-05 
   -7.12393210e-05     3.32007996e-06     1.80695567e-05 
   -7.52519947e-05     3.76296092e-06     7.53584287e-06 
   -8.30358456e-05     1.83546863e-06     2.63029775e-06 
   -8.86756468e-05     3.59647302e-08     1.50203242e-06 
   -9.10095422e-05    -3.72763194e-07     1.38225834e-06 
   -9.10104193e-05    -3.72281988e-07    -1.39487171e-06 
   -8.86774223e-05     3.45461685e-08    -1.51425335e-06 
   -8.30354208e-05     1.86359489e-06    -2.66722221e-06 
   -7.52566049e-05     3.76793200e-06    -7.54481980e-06 
   -7.12453568e-05     3.32249346e-06    -1.80820019e-05 
   -7.66392557e-05     2.53341212e-06     1.84191567e-05 
   -8.03739575e-05     2.11129614e-06     5.95068189e-06 
   -8.85831222e-05     1.61259297e-06     1.49802620e-07 
   -9.47655828e-05    -2.92829079e-07    -3.41309219e-07 
   -9.83071479e-05    -1.05883884e-06     4.65282191e-07 
   -9.83077414e-05    -1.05833472e-06    -4.76366640e-07 
   -9.47651958e-05    -2.69210159e-07     3.07825913e-07 
   -8.85854528e-05     1.61540107e-06    -1.58033981e-07 
   -8.03774653e-05     2.11207153e-06    -5.96272193e-06 
   -7.66434610e-05     2.53901799e-06    -1.84317971e-05 
   -7.88069282e-05     7.68253112e-07     1.78157665e-05 
   -8.27421519e-05     1.23154600e-06     5.14776145e-06 
   -9.08179849e-05     6.70991974e-07    -6.41025750e-07 
   -9.81994043e-05     4.27213924e-07    -1.47649592e-06 
   -1.01011690e-04    -3.22878733e-07    -2.75875365e-07 
   -1.01011649e-04    -2.99913257e-07     2.44326906e-07 
   -9.82005182e-05     4.28516150e-07     1.46724134e-06 
   -9.08200953e-05     6.70561760e-07     6.30328328e-07 
   -8.27450545e-05     1.23354046e-06    -5.16029240e-06 
   -7.88102762e-05     7.67948347e-07    -1.78296185e-05 
   -7.88069282e-05    -7.68253112e-07     1.78157665e-05 
   -8.27421519e-05    -1.23154600e-06     5.14776145e-06 
   -9.08179849e-05    -6.70991974e-07    -6.41025750e-07 
   -9.81994043e-05    -4.27213924e-07    -1.47649592e-06 
   -1.01011690e-04     3.22878733e-07    -2.75875365e-07 
   -1.01011649e-04     2.99913257e-07     2.44326906e-07 
   -9.82005182e-05    -4.28516150e-07     1.46724134e-06 
   -9.08200953e-05    -6.70561760e-07     6.30328328e-07 
   -8.27450545e-05    -1.23354046e-06    -5.16029240e-06 
   -7.88102762e-05    -7.67948347e-07    -1.78296185e-05 
   -7.66392557e-05    -2.53341212e-06     1.84191567e-05 
   -8.03739575e-05    -2.11129614e-06     5.95068189e-06 
   -8.85831222e-05    -1.61259297e-06     1.49802620e-07 
   -9.47655828e-05     2.92829079e-07    -3.41309219e-07 
   -9.83071479e-05     1.05883884e-06     4.65282191e-07 
   -9.83077414e-05     1.05833472e-06    -4.76366640e-07 
   -9.47651958e-05     2.69210159e-07     3.07825913e-07 
   -8.85854528e-05    -1.61540107e-06    -1.58033981e-07 
   -8.03774653e-05    -2.11207153e-06    -5.96272193e-06 
   -7.66434610e-05    -2.53901799e-06    -1.84317971e-05 
   -7.12393210e-05    -3.32007996e-06     1.80695567e-05 
   -7.52519947e-05    -3.76296092e-06     7.53584287e-06 
   -8.30358456e-05    -1.83546863e-06     2.63029775e-06 
   -8.86756468e-05    -3.59647302e-08     1.50203242e-06 
   -9.10095422e-05     3.72763194e-07     1.38225834e-06 
   -9.10104193e-05     3.72281988e-07    -1.39487171e-06 
   -8.86774223e-05    -3.45461685e-08    -1.51425335e-06 
   -8.30354208e-05    -1.86359489e-06    -2.66722221e-06 
   -7.52566049e-05    -3.76793200e-06    -7.54481980e-06 
   -7.12453568e-05    -3.32249346e-06    -1.80820019e-05 
   -6.45740056e-05    -1.01431489e-05     1.92730526e-05 
   -6.81044202e-05    -7.60939693e-06     8.06160965e-06 
   -7.53661359e-05    -8.13452722e-06     4.56417472e-06 
   -8.05069210e-05    -5.78587333e-06     2.66174615e-06 
   -8.30479995e-05    -5.65241910e-06     1.88273726e-06 
   -8.30486838e-05    -5.65272844e-06    -1.89593053e-06 
   -8.05095635e-05    -5.78503513e-06    -2.67288904e-06 
   -7.53706237e-05    -8.13420731e-06    -4.57673851e-06 
   -6.81034896e-05    -7.64336120e-06    -8.10554676e-06 
   -6.45834188e-05    -1.01512249e-05    -1.92799268e-05 
   -6.37393267e-05    -1.52859045e-05     2.17901239e-05 
   -6.52522925e-05    -1.96608762e-05     8.74775569e-06 
   -7.21796716e-05    -1.85754627e-05     5.78889925e-06 
   -7.70678262e-05    -1.89375452e-05     1.65466713e-06 
   -7.96207477e-05    -1.83666492e-05     2.51996938e-06 
   -7.96220458e-05    -1.83674188e-05    -2.53260255e-06 
   -7.70697308e-05    -1.89354460e-05    -1.66687611e-06 
   -7.21846158e-05    -1.85749811e-05    -5.80144608e-06 
   -6.52586156e-05    -1.96567555e-05    -8.76399440e-06 
   -6.36178100e-05    -1.52266462e-05    -2.17878834e-05 
   -3.94569059e-05     4.69980766e-06     9.74974311e-06 
   -4.70184477e-05     1.03731235e-05     7.86714852e-06 
   -5.21107750e-05     9.22212514e-06     6.28924506e-06 
   -5.94554777e-05     9.20734638e-06     3.51540687e-06 
   -6.15485993e-05     8.74173589e-06     2.17908589e-06 
   -6.15479534e-05     8.74205592e-06    -2.18045772e-06 
   -5.94593016e-05     9.20710381e-06    -3.51542044e-06 
   -5.21141114e-05     9.22245456e-06    -6.28869974e-06 
   -4.70217992e-05     1.03691879e-05    -7.87108450e-06 
   -3.94204170e-05     4.68979225e-06    -9.74491876e-06 
   -4.52075207e-05     8.08836756e-06     1.01834543e-05 
   -5.30599961e-05     5.47992539e-06     7.22997404e-06 
   -5.85760688e-05     7.75653030e-06     6.63490360e-06 
   -6.57311382e-05     5.28387991e-06     4.23834869e-06 
   -6.80707101e-05     5.22895408e-06     1.51651860e-06 
   -6.80701552e-05     5.22987555e-06    -1.51805556e-06 
   -6.57345870e-05     5.28275032e-06    -4.23924071e-06 
   -5.85740457e-05     7.75649740e-06    -6.63643181e-06 
   -5.30757375e-05     5.47000186e-06    -7.22683023e-06 
   -4.52109586e-05     8.09106475e-06    -1.01846143e-05 
   -5.26878858e-05     5.23524314e-06     8.90888230e-06 
   -5.91778776e-05     6.57515769e-06     7.08487180e-06 
   -6.63316899e-05     3.87614543e-06     4.65395303e-06 
   -7.34786693e-05     4.28558277e-06     3.29797435e-06 
   -7.67568462e-05     3.87962518e-06     1.99938749e-06 
   -7.67569338e-05     3.87944575e-06    -2.00238591e-06 
   -7.34787094e-05     4.28484643e-06    -3.30188683e-06 
   -6.63360746e-05     3.87637430e-06    -4.65741021e-06 
   -5.91772642e-05     6.57613566e-06    -7.08826912e-06 
   -5.26952693e-05     5.23340047e-06    -8.91641662e-06 
   -5.87304269e-05     3.74279075e-06     8.95749903e-06 
   -6.52495787e-05     3.28646995e-06     5.83462450e-06 
   -7.34402788e-05     3.34885152e-06     4.31067747e-06 
   -8.16785736e-05     1.36108523e-06     1.45855937e-06 
   -8.56151822e-05     1.53148321e-06     9.66882150e-07 
   -8.56141291e-05     1.53211506e-06    -9.70269563e-07 
   -8.16821523e-05     1.36387003e-06    -1.46434778e-06 
   -7.34395208e-05     3.35065160e-06    -4.31318591e-06 
   -6.52517570e-05     3.28482670e-06    -5.84142195e-06 
   -5.87346131e-05     3.74483883e-06    -8.96589853e-06 
   -6.15283810e-05     1.11078700e-06     8.53310034e-06 
   -6.80877239e-05     1.54156726e-06     4.86972091e-06 
   -7.68739997e-05     1.41134290e-06     3.77632466e-06 
   -8.55463892e-05     1.06984044e-06     1.20419898e-06 
   -8.95265065e-05     3.91043860e-07     4.16340559e-07 
   -8.95266571e-05     3.94588006e-07    -4.23078775e-07 
   -8.55461835e-05     1.07078643e-06    -1.20721784e-06 
   -7.68748989e-05     1.41004139e-06    -3.78050778e-06 
   -6.80891115e-05     1.54132175e-06    -4.87645963e-06 
   -6.15317778e-05     1.10931375e-06    -8.54193650e-06 
   -6.15283810e-05    -1.11078699e-06     8.53310034e-06 
   -6.80877239e-05    -1.54156726e-06     4.86972091e-06 
   -7.68739997e-05    -1.41134290e-06     3.77632466e-06 
   -8.55463892e-05    -1.06984044e-06     1.20419898e-06 
   -8.95265065e-05    -3.91043860e-07     4.16340559e-07 
   -8.95266571e-05    -3.94588006e-07    -4.23078775e-07 
   -8.55461835e-05    -1.07078643e-06    -1.20721784e-06 
   -7.68748989e-05    -1.41004139e-06    -3.78050778e-06 
   -6.80891115e-05    -1.54132175e-06    -4.87645963e-06 
   -6.15317778e-05    -1.10931375e-06    -8.54193650e-06 
   -5.87304269e-05    -3.74279075e-06     8.95749903e-06 
   -6.52495787e-05    -3.28646995e-06     5.83462450e-06 
   -7.34402788e-05    -3.34885152e-06     4.31067747e-06 
   -8.16785736e-05    -1.36108523e-06     1.45855937e-06 
   -8.56151822e-05    -1.53148321e-06     9.66882150e-07 
   -8.56141291e-05    -1.53211506e-06    -9.70269563e-07 
   -8.16821523e-05    -1.36387003e-06    -1.46434778e-06 
   -7.34395208e-05    -3.35065160e-06    -4.31318591e-06 
   -6.52517570e-05    -3.28482670e-06    -5.84142195e-06 
   -5.87346131e-05    -3.74483883e-06    -8.96589853e-06 
   -5.26878858e-05    -5.23524314e-06     8.90888230e-06 
   -5.91778776e-05    -6.57515769e-06     7.08487180e-06 
   -6.63316899e-05    -3.87614543e-06     4.65395303e-06 
   -7.34786693e-05    -4.28558277e-06     3.29797435e-06 
   -7.67568462e-05    -3.87962518e-06     1.99938749e-06 
   -7.67569338e-05    -3.87944575e-06    -2.00238591e-06 
   -7.34787094e-05    -4.28484643e-06    -3.30188683e-06 
   -6.63360746e-05    -3.87637430e-06    -4.65741021e-06 
   -5.91772642e-05    -6.57613566e-06    -7.08826912e-06 
   -5.26952693e-05    -5.23340047e-06    -8.91641662e-06 
   -4.52075207e-05    -8.08836756e-06     1.01834543e-05 
   -5.30599961e-05    -5.47992539e-06     7.22997404e-06 
   -5.85760688e-05    -7.75653030e-06     6.63490360e-06 
   -6.57311382e-05    -5.28387991e-06     4.23834869e-06 
   -6.80707101e-05    -5.22895408e-06     1.51651860e-06 
   -6.80701552e-05    -5.22987555e-06    -1.51805556e-06 
   -6.57345870e-05    -5.28275032e-06    -4.23924071e-06 
   -5.85740457e-05    -7.75649740e-06    -6.63643181e-06 
   -5.30757375e-05    -5.47000186e-06    -7.22683023e-06 
   -4.52109586e-05    -8.09106475e-06    -1.01846143e-05 
   -3.94569059e-05    -4.69980766e-06     9.74974311e-06 
   -4.70184477e-05    -1.03731235e-05     7.86714852e-06 
   -5.21107750e-05    -9.22212514e-06     6.28924506e-06 
   -5.94554777e-05    -9.20734638e-06     3.51540687e-06 
   -6.15485993e-05    -8.74173589e-06     2.17908589e-06 
   -6.15479534e-05    -8.74205592e-06    -2.18045772e-06 
   -5.94593016e-05    -9.20710381e-06    -3.51542044e-06 
   -5.21141114e-05    -9.22245456e-06    -6.28869974e-06 
   -4.70217992e-05    -1.03691879e-05    -7.87108450e-06 
   -3.94204170e-05    -4.68979225e-06    -9.74491876e-06 
   -3.39662191e-05     3.55994582e-06     8.14003983e-06 
   -3.55703059e-05     7.54476140e-06     5.14060775e-06 
   -4.13948264e-05     7.47385662e-06     6.03065238e-06 
   -4.75265557e-05     7.21711937e-06     4.06094034e-06 
   -5.05988452e-05     6.63406160e-06     1.65187567e-06 
   -5.05999107e-05     6.63415371e-06    -1.65362161e-06 
   -4.75277630e-05     7.21670095e-06    -4.06293743e-06 
   -4.13948746e-05     7.47137547e-06    -6.03575287e-06 
   -3.55704251e-05     7.54312379e-06    -5.14519524e-06 
   -3.39419931e-05     3.55786940e-06    -8.14331288e-06 
   -3.65456026e-05     4.76654063e-06     7.14780518e-06 
   -3.86022045e-05     4.16408464e-06     4.21888048e-06 
   -4.39181270e-05     5.21209847e-06     6.36478734e-06 
   -4.98722665e-05     3.64872546e-06     5.38407807e-06 
   -5.26353590e-05     2.75521387e-06     1.59158309e-06 
   -5.26359128e-05     2.75573946e-06    -1.59249838e-06 
   -4.98712847e-05     3.64771215e-06    -5.38658460e-06 
   -4.39210458e-05     5.21120402e-06    -6.36396831e-06 
   -3.86139773e-05     4.16026378e-06    -4.21753996e-06 
   -3.65490517e-05     4.76848735e-06    -7.15033959e-06 
   -4.13308368e-05     4.96769150e-06     7.38623753e-06 
   -4.35057358e-05     5.63497902e-06     5.20843290e-06 
   -4.89354000e-05     2.90320500e-06     3.54356106e-06 
   -5.56398312e-05     3.60563702e-06     4.70428604e-06 
   -5.88231374e-05     3.22563886e-06     1.79554691e-06 
   -5.88224182e-05     3.22559107e-06    -1.79881001e-06 
   -5.56406286e-05     3.60526860e-06    -4.70532458e-06 
   -4.89437817e-05     2.90102444e-06    -3.54454464e-06 
   -4.35092561e-05     5.63252567e-06    -5.21075925e-06 
   -4.13348086e-05     4.96954118e-06    -7.38890471e-06 
   -4.74884393e-05     4.52192512e-06     7.09069414e-06 
   -4.99674320e-05     5.13537029e-06     3.99588352e-06 
   -5.57110478e-05     4.58147988e-06     3.75595933e-06 
   -6.36837476e-05     3.13118573e-06     3.21038922e-06 
   -6.73365975e-05     3.70334638e-06     8.06802987e-07 
   -6.73373469e-05     3.70311068e-06    -8.09438774e-07 
   -6.36859795e-05     3.13364223e-06    -3.21629605e-06 
   -5.57115971e-05     4.58048993e-06    -3.75931886e-06 
   -4.99674733e-05     5.13559063e-06    -4.00058270e-06 
   -4.74927314e-05     4.52295555e-06    -7.09699947e-06 
   -5.06036469e-05     9.13612601e-07     6.52725925e-06 
   -5.26829966e-05     1.16030351e-06     2.76270404e-06 
   -5.88646414e-05     1.27957627e-06     3.25568446e-06 
   -6.73748557e-05     8.20765629e-07     3.46955714e-06 
   -7.10576113e-05     3.63505508e-07     3.15476802e-07 
   -7.10585495e-05     3.67669310e-07    -3.20626655e-07 
   -6.73743179e-05     8.19706240e-07    -3.47300365e-06 
   -5.88628146e-05     1.28020248e-06    -3.26028289e-06 
   -5.26839749e-05     1.16054524e-06    -2.76865669e-06 
   -5.06063441e-05     9.13632665e-07    -6.53433753e-06 
   -5.06036469e-05    -9.13612601e-07     6.52725925e-06 
   -5.26829966e-05    -1.16030351e-06     2.76270404e-06 
   -5.88646414e-05    -1.27957627e-06     3.25568446e-06 
   -6.73748557e-05    -8.20765629e-07     3.46955714e-06 
   -7.10576113e-05    -3.63505508e-07     3.15476802e-07 
   -7.10585495e-05    -3.67669310e-07    -3.20626655e-07 
   -6.73743179e-05    -8.19706240e-07    -3.47300365e-06 
   -5.88628146e-05    -1.28020248e-06    -3.26028289e-06 
   -5.26839749e-05    -1.16054524e-06    -2.76865669e-06 
   -5.06063441e-05    -9.13632665e-07    -6.53433753e-06 
   -4.74884393e-05    -4.52192512e-06     7.09069414e-06 
   -4.99674320e-05    -5.13537029e-06     3.99588352e-06 
   -5.57110478e-05    -4.58147988e-06     3.75595933e-06 
   -6.36837476e-05    -3.13118573e-06     3.21038922e-06 
   -6.73365975e-05    -3.70334638e-06     8.06802987e-07 
   -6.73373469e-05    -3.70311068e-06    -8.09438774e-07 
   -6.36859795e-05    -3.13364223e-06    -3.21629605e-06 
   -5.57115971e-05    -4.58048993e-06    -3.75931886e-06 
   -4.99674733e-05    -5.13559063e-06    -4.00058270e-06 
   -4.74927314e-05    -4.52295555e-06    -7.09699947e-06 
   -4.13308368e-05    -4.96769150e-06     7.38623753e-06 
   -4.35057358e-05    -5.63497902e-06     5.20843290e-06 
   -4.89354000e-05    -2.90320500e-06     3.54356106e-06 
   -5.56398312e-05    -3.60563702e-06     4.70428604e-06 
   -5.88231374e-05    -3.22563886e-06     1.79554691e-06 
   -5.88224182e-05    -3.22559107e-06    -1.79881001e-06 
   -5.56406286e-05    -3.60526860e-06    -4.70532458e-06 
   -4.89437817e-05    -2.90102444e-06    -3.54454464e-06 
   -4.35092561e-05    -5.63252567e-06    -5.21075925e-06 
   -4.13348086e-05    -4.96954118e-06    -7.38890471e-06 
   -3.65456026e-05    -4.76654063e-06     7.14780518e-06 
   -3.86022045e-05    -4.16408464e-06     4.21888048e-06 
   -4.39181270e-05    -5.21209847e-06     6.36478734e-06 
   -4.98722665e-05    -3.64872546e-06     5.38407807e-06 
   -5.26353590e-05    -2.75521387e-06     1.59158309e-06 
   -5.26359128e-05    -2.75573946e-06    -1.59249838e-06 
   -4.98712847e-05    -3.64771215e-06    -5.38658460e-06 
   -4.39210458e-05    -5.21120402e-06    -6.36396831e-06 
   -3.86139773e-05    -4.16026378e-06    -4.21753996e-06 
   -3.65490517e-05    -4.76848735e-06    -7.15033959e-06 
   -3.39662191e-05    -3.55994582e-06     8.14003983e-06 
   -3.55703059e-05    -7.54476140e-06     5.14060775e-06 
   -4.13948264e-05    -7.47385662e-06     6.03065238e-06 
   -4.75265557e-05    -7.21711937e-06     4.06094034e-06 
   -5.05988452e-05    -6.63406160e-06     1.65187567e-06 
   -5.05999107e-05    -6.63415371e-06    -1.65362161e-06 
   -4.75277630e-05    -7.21670095e-06    -4.06293743e-06 
   -4.13948746e-05    -7.47137547e-06    -6.03575287e-06 
   -3.55704251e-05    -7.54312379e-06    -5.14519524e-06 
   -3.39419931e-05    -3.55786940e-06    -8.14331288e-06 
   -1.97877382e-05     1.21309253e-06     6.43809727e-06 
   -2.15525850e-05     5.68642700e-06     4.19575400e-06 
   -2.47413940e-05     3.94802657e-06     3.28568552e-06 
   -2.82041697e-05     3.50261866e-06     3.65223345e-06 
   -3.24008975e-05     2.49163459e-06     1.77543927e-06 
   -3.24000775e-05     2.49146801e-06    -1.77828945e-06 
   -2.82033387e-05     3.50175920e-06    -3.65661565e-06 
   -2.47400233e-05     3.94691065e-06    -3.29097955e-06 
   -2.15534398e-05     5.68573993e-06    -4.20191133e-06 
   -1.97659942e-05     1.21286896e-06    -6.44317318e-06 
   -2.04431356e-05     4.54061205e-06     5.46477542e-06 
   -2.17449049e-05     3.05685512e-06     3.36846363e-06 
   -2.44397325e-05     3.25118911e-06     3.58506772e-06 
   -2.77598522e-05     1.32652818e-06     4.53973762e-06 
   -3.15982058e-05     1.59468148e-07     1.83799766e-06 
   -3.15966977e-05     1.60058382e-07    -1.84054847e-06 
   -2.77609947e-05     1.32575368e-06    -4.54043402e-06 
   -2.44410872e-05     3.25116436e-06    -3.58531012e-06 
   -2.17557598e-05     3.05583455e-06    -3.37047344e-06 
   -2.04435012e-05     4.54467781e-06    -5.46802792e-06 
   -2.51542737e-05     2.87892589e-06     3.74337839e-06 
   -2.48463875e-05     3.06854136e-06     3.56899509e-06 
   -2.94660170e-05     2.67560518e-07     6.51595204e-07 
   -3.29969571e-05     2.08968799e-07     3.95198957e-06 
   -3.71712539e-05    -3.69963868e-07     1.97756223e-06 
   -3.71709540e-05    -3.70748320e-07    -1.98001899e-06 
   -3.29980225e-05     2.08851520e-07    -3.95329194e-06 
   -2.94725470e-05     2.67032636e-07    -6.53072962e-07 
   -2.48496869e-05     3.06760591e-06    -3.57181526e-06 
   -2.51552622e-05     2.88238760e-06    -3.74671405e-06 
   -2.80208603e-05     3.58941895e-06     3.48548990e-06 
   -2.80314885e-05     3.94804719e-06     1.43673266e-06 
   -3.29381920e-05     3.61639230e-06     4.24276677e-07 
   -3.66579906e-05     1.62770205e-06     1.64597088e-06 
   -4.09593671e-05     2.20650976e-06     1.25398243e-06 
   -4.09587616e-05     2.20710142e-06    -1.25610180e-06 
   -3.66615869e-05     1.62684272e-06    -1.64937806e-06 
   -3.29394115e-05     3.61525640e-06    -4.27207321e-07 
   -2.80348298e-05     3.94583355e-06    -1.44018537e-06 
   -2.80230237e-05     3.59117705e-06    -3.49021997e-06 
   -3.24879503e-05     1.48286345e-06     2.47809115e-06 
   -3.17437705e-05     1.76814007e-06     1.95564317e-07 
   -3.72738974e-05     1.75742617e-06    -3.64458420e-07 