# vtk DataFile Version 2.0 
generated by Lattice Boltzmann Method time =   5.77350269e-01
ASCII 
DATASET UNSTRUCTURED_GRID

POINTS   1000 FLOAT 
  0.00000000e+00   0.00000000e+00   0.00000000e+00 
  0.00000000e+00   0.00000000e+00   1.00000000e-01 
  0.00000000e+00   0.00000000e+00   2.00000000e-01 
  0.00000000e+00   0.00000000e+00   3.00000000e-01 
  0.00000000e+00   0.00000000e+00   4.00000000e-01 
  0.00000000e+00   0.00000000e+00   5.00000000e-01 
  0.00000000e+00   0.00000000e+00   6.00000000e-01 
  0.00000000e+00   0.00000000e+00   7.00000000e-01 
  0.00000000e+00   0.00000000e+00   8.00000000e-01 
  0.00000000e+00   0.00000000e+00   9.00000000e-01 
  0.00000000e+00   1.00000000e-01   0.00000000e+00 
  0.00000000e+00   1.00000000e-01   1.00000000e-01 
  0.00000000e+00   1.00000000e-01   2.00000000e-01 
  0.00000000e+00   1.00000000e-01   3.00000000e-01 
  0.00000000e+00   1.00000000e-01   4.00000000e-01 
  0.00000000e+00   1.00000000e-01   5.00000000e-01 
  0.00000000e+00   1.00000000e-01   6.00000000e-01 
  0.00000000e+00   1.00000000e-01   7.00000000e-01 
  0.00000000e+00   1.00000000e-01   8.00000000e-01 
  0.00000000e+00   1.00000000e-01   9.00000000e-01 
  0.00000000e+00   2.00000000e-01   0.00000000e+00 
  0.00000000e+00   2.00000000e-01   1.00000000e-01 
  0.00000000e+00   2.00000000e-01   2.00000000e-01 
  0.00000000e+00   2.00000000e-01   3.00000000e-01 
  0.00000000e+00   2.00000000e-01   4.00000000e-01 
  0.00000000e+00   2.00000000e-01   5.00000000e-01 
  0.00000000e+00   2.00000000e-01   6.00000000e-01 
  0.00000000e+00   2.00000000e-01   7.00000000e-01 
  0.00000000e+00   2.00000000e-01   8.00000000e-01 
  0.00000000e+00   2.00000000e-01   9.00000000e-01 
  0.00000000e+00   3.00000000e-01   0.00000000e+00 
  0.00000000e+00   3.00000000e-01   1.00000000e-01 
  0.00000000e+00   3.00000000e-01   2.00000000e-01 
  0.00000000e+00   3.00000000e-01   3.00000000e-01 
  0.00000000e+00   3.00000000e-01   4.00000000e-01 
  0.00000000e+00   3.00000000e-01   5.00000000e-01 
  0.00000000e+00   3.00000000e-01   6.00000000e-01 
  0.00000000e+00   3.00000000e-01   7.00000000e-01 
  0.00000000e+00   3.00000000e-01   8.00000000e-01 
  0.00000000e+00   3.00000000e-01   9.00000000e-01 
  0.00000000e+00   4.00000000e-01   0.00000000e+00 
  0.00000000e+00   4.00000000e-01   1.00000000e-01 
  0.00000000e+00   4.00000000e-01   2.00000000e-01 
  0.00000000e+00   4.00000000e-01   3.00000000e-01 
  0.00000000e+00   4.00000000e-01   4.00000000e-01 
  0.00000000e+00   4.00000000e-01   5.00000000e-01 
  0.00000000e+00   4.00000000e-01   6.00000000e-01 
  0.00000000e+00   4.00000000e-01   7.00000000e-01 
  0.00000000e+00   4.00000000e-01   8.00000000e-01 
  0.00000000e+00   4.00000000e-01   9.00000000e-01 
  0.00000000e+00   5.00000000e-01   0.00000000e+00 
  0.00000000e+00   5.00000000e-01   1.00000000e-01 
  0.00000000e+00   5.00000000e-01   2.00000000e-01 
  0.00000000e+00   5.00000000e-01   3.00000000e-01 
  0.00000000e+00   5.00000000e-01   4.00000000e-01 
  0.00000000e+00   5.00000000e-01   5.00000000e-01 
  0.00000000e+00   5.00000000e-01   6.00000000e-01 
  0.00000000e+00   5.00000000e-01   7.00000000e-01 
  0.00000000e+00   5.00000000e-01   8.00000000e-01 
  0.00000000e+00   5.00000000e-01   9.00000000e-01 
  0.00000000e+00   6.00000000e-01   0.00000000e+00 
  0.00000000e+00   6.00000000e-01   1.00000000e-01 
  0.00000000e+00   6.00000000e-01   2.00000000e-01 
  0.00000000e+00   6.00000000e-01   3.00000000e-01 
  0.00000000e+00   6.00000000e-01   4.00000000e-01 
  0.00000000e+00   6.00000000e-01   5.00000000e-01 
  0.00000000e+00   6.00000000e-01   6.00000000e-01 
  0.00000000e+00   6.00000000e-01   7.00000000e-01 
  0.00000000e+00   6.00000000e-01   8.00000000e-01 
  0.00000000e+00   6.00000000e-01   9.00000000e-01 
  0.00000000e+00   7.00000000e-01   0.00000000e+00 
  0.00000000e+00   7.00000000e-01   1.00000000e-01 
  0.00000000e+00   7.00000000e-01   2.00000000e-01 
  0.00000000e+00   7.00000000e-01   3.00000000e-01 
  0.00000000e+00   7.00000000e-01   4.00000000e-01 
  0.00000000e+00   7.00000000e-01   5.00000000e-01 
  0.00000000e+00   7.00000000e-01   6.00000000e-01 
  0.00000000e+00   7.00000000e-01   7.00000000e-01 
  0.00000000e+00   7.00000000e-01   8.00000000e-01 
  0.00000000e+00   7.00000000e-01   9.00000000e-01 
  0.00000000e+00   8.00000000e-01   0.00000000e+00 
  0.00000000e+00   8.00000000e-01   1.00000000e-01 
  0.00000000e+00   8.00000000e-01   2.00000000e-01 
  0.00000000e+00   8.00000000e-01   3.00000000e-01 
  0.00000000e+00   8.00000000e-01   4.00000000e-01 
  0.00000000e+00   8.00000000e-01   5.00000000e-01 
  0.00000000e+00   8.00000000e-01   6.00000000e-01 
  0.00000000e+00   8.00000000e-01   7.00000000e-01 
  0.00000000e+00   8.00000000e-01   8.00000000e-01 
  0.00000000e+00   8.00000000e-01   9.00000000e-01 
  0.00000000e+00   9.00000000e-01   0.00000000e+00 
  0.00000000e+00   9.00000000e-01   1.00000000e-01 
  0.00000000e+00   9.00000000e-01   2.00000000e-01 
  0.00000000e+00   9.00000000e-01   3.00000000e-01 
  0.00000000e+00   9.00000000e-01   4.00000000e-01 
  0.00000000e+00   9.00000000e-01   5.00000000e-01 
  0.00000000e+00   9.00000000e-01   6.00000000e-01 
  0.00000000e+00   9.00000000e-01   7.00000000e-01 
  0.00000000e+00   9.00000000e-01   8.00000000e-01 
  0.00000000e+00   9.00000000e-01   9.00000000e-01 
  1.00000000e-01   0.00000000e+00   0.00000000e+00 
  1.00000000e-01   0.00000000e+00   1.00000000e-01 
  1.00000000e-01   0.00000000e+00   2.00000000e-01 
  1.00000000e-01   0.00000000e+00   3.00000000e-01 
  1.00000000e-01   0.00000000e+00   4.00000000e-01 
  1.00000000e-01   0.00000000e+00   5.00000000e-01 
  1.00000000e-01   0.00000000e+00   6.00000000e-01 
  1.00000000e-01   0.00000000e+00   7.00000000e-01 
  1.00000000e-01   0.00000000e+00   8.00000000e-01 
  1.00000000e-01   0.00000000e+00   9.00000000e-01 
  1.00000000e-01   1.00000000e-01   0.00000000e+00 
  1.00000000e-01   1.00000000e-01   1.00000000e-01 
  1.00000000e-01   1.00000000e-01   2.00000000e-01 
  1.00000000e-01   1.00000000e-01   3.00000000e-01 
  1.00000000e-01   1.00000000e-01   4.00000000e-01 
  1.00000000e-01   1.00000000e-01   5.00000000e-01 
  1.00000000e-01   1.00000000e-01   6.00000000e-01 
  1.00000000e-01   1.00000000e-01   7.00000000e-01 
  1.00000000e-01   1.00000000e-01   8.00000000e-01 
  1.00000000e-01   1.00000000e-01   9.00000000e-01 
  1.00000000e-01   2.00000000e-01   0.00000000e+00 
  1.00000000e-01   2.00000000e-01   1.00000000e-01 
  1.00000000e-01   2.00000000e-01   2.00000000e-01 
  1.00000000e-01   2.00000000e-01   3.00000000e-01 
  1.00000000e-01   2.00000000e-01   4.00000000e-01 
  1.00000000e-01   2.00000000e-01   5.00000000e-01 
  1.00000000e-01   2.00000000e-01   6.00000000e-01 
  1.00000000e-01   2.00000000e-01   7.00000000e-01 
  1.00000000e-01   2.00000000e-01   8.00000000e-01 
  1.00000000e-01   2.00000000e-01   9.00000000e-01 
  1.00000000e-01   3.00000000e-01   0.00000000e+00 
  1.00000000e-01   3.00000000e-01   1.00000000e-01 
  1.00000000e-01   3.00000000e-01   2.00000000e-01 
  1.00000000e-01   3.00000000e-01   3.00000000e-01 
  1.00000000e-01   3.00000000e-01   4.00000000e-01 
  1.00000000e-01   3.00000000e-01   5.00000000e-01 
  1.00000000e-01   3.00000000e-01   6.00000000e-01 
  1.00000000e-01   3.00000000e-01   7.00000000e-01 
  1.00000000e-01   3.00000000e-01   8.00000000e-01 
  1.00000000e-01   3.00000000e-01   9.00000000e-01 
  1.00000000e-01   4.00000000e-01   0.00000000e+00 
  1.00000000e-01   4.00000000e-01   1.00000000e-01 
  1.00000000e-01   4.00000000e-01   2.00000000e-01 
  1.00000000e-01   4.00000000e-01   3.00000000e-01 
  1.00000000e-01   4.00000000e-01   4.00000000e-01 
  1.00000000e-01   4.00000000e-01   5.00000000e-01 
  1.00000000e-01   4.00000000e-01   6.00000000e-01 
  1.00000000e-01   4.00000000e-01   7.00000000e-01 
  1.00000000e-01   4.00000000e-01   8.00000000e-01 
  1.00000000e-01   4.00000000e-01   9.00000000e-01 
  1.00000000e-01   5.00000000e-01   0.00000000e+00 
  1.00000000e-01   5.00000000e-01   1.00000000e-01 
  1.00000000e-01   5.00000000e-01   2.00000000e-01 
  1.00000000e-01   5.00000000e-01   3.00000000e-01 
  1.00000000e-01   5.00000000e-01   4.00000000e-01 
  1.00000000e-01   5.00000000e-01   5.00000000e-01 
  1.00000000e-01   5.00000000e-01   6.00000000e-01 
  1.00000000e-01   5.00000000e-01   7.00000000e-01 
  1.00000000e-01   5.00000000e-01   8.00000000e-01 
  1.00000000e-01   5.00000000e-01   9.00000000e-01 
  1.00000000e-01   6.00000000e-01   0.00000000e+00 
  1.00000000e-01   6.00000000e-01   1.00000000e-01 
  1.00000000e-01   6.00000000e-01   2.00000000e-01 
  1.00000000e-01   6.00000000e-01   3.00000000e-01 
  1.00000000e-01   6.00000000e-01   4.00000000e-01 
  1.00000000e-01   6.00000000e-01   5.00000000e-01 
  1.00000000e-01   6.00000000e-01   6.00000000e-01 
  1.00000000e-01   6.00000000e-01   7.00000000e-01 
  1.00000000e-01   6.00000000e-01   8.00000000e-01 
  1.00000000e-01   6.00000000e-01   9.00000000e-01 
  1.00000000e-01   7.00000000e-01   0.00000000e+00 
  1.00000000e-01   7.00000000e-01   1.00000000e-01 
  1.00000000e-01   7.00000000e-01   2.00000000e-01 
  1.00000000e-01   7.00000000e-01   3.00000000e-01 
  1.00000000e-01   7.00000000e-01   4.00000000e-01 
  1.00000000e-01   7.00000000e-01   5.00000000e-01 
  1.00000000e-01   7.00000000e-01   6.00000000e-01 
  1.00000000e-01   7.00000000e-01   7.00000000e-01 
  1.00000000e-01   7.00000000e-01   8.00000000e-01 
  1.00000000e-01   7.00000000e-01   9.00000000e-01 
  1.00000000e-01   8.00000000e-01   0.00000000e+00 
  1.00000000e-01   8.00000000e-01   1.00000000e-01 
  1.00000000e-01   8.00000000e-01   2.00000000e-01 
  1.00000000e-01   8.00000000e-01   3.00000000e-01 
  1.00000000e-01   8.00000000e-01   4.00000000e-01 
  1.00000000e-01   8.00000000e-01   5.00000000e-01 
  1.00000000e-01   8.00000000e-01   6.00000000e-01 
  1.00000000e-01   8.00000000e-01   7.00000000e-01 
  1.00000000e-01   8.00000000e-01   8.00000000e-01 
[...]
POINT_DATA   1000
FIELD solution 1
u 3   1000 DOUBLE
   -3.08955910e-04     7.26399958e-05     6.71324324e-05 
   -3.08658018e-04     6.97835638e-05     5.04081736e-05 
   -3.11999726e-04     7.07386490e-05     3.88902733e-05 
   -3.12219809e-04     7.08829355e-05     2.36192667e-05 
   -3.12742403e-04     7.19739116e-05     7.06026833e-06 
   -3.12742859e-04     7.19747989e-05    -7.06125204e-06 
   -3.12220561e-04     7.08821371e-05    -2.36210095e-05 
   -3.12001276e-04     7.07392051e-05    -3.88928909e-05 
   -3.08660083e-04     6.97821748e-05    -5.04114590e-05 
   -3.08890168e-04     7.26279679e-05    -6.71410709e-05 
   -3.06896964e-04     5.00823465e-05     6.92945807e-05 
   -3.01901996e-04     5.15510278e-05     5.12009091e-05 
   -3.06113847e-04     5.04528467e-05     3.80492181e-05 
   -3.06572173e-04     5.21091825e-05     2.27021556e-05 
   -3.07146371e-04     5.29656444e-05     6.79942355e-06 
   -3.07146690e-04     5.29656893e-05    -6.80361107e-06 
   -3.06573291e-04     5.21090706e-05    -2.27060468e-05 
   -3.06115124e-04     5.04519982e-05    -3.80539325e-05 
   -3.01901357e-04     5.15622429e-05    -5.12159626e-05 
   -3.06899295e-04     5.00816987e-05    -6.92941942e-05 
   -3.11095652e-04     3.82107764e-05     7.04920637e-05 
   -3.05977031e-04     3.83025995e-05     4.97884273e-05 
   -3.09181629e-04     4.00998265e-05     3.97754334e-05 
   -3.09565424e-04     4.07577708e-05     2.35979457e-05 
   -3.09910024e-04     4.12039385e-05     6.95854671e-06 
   -3.09910327e-04     4.12043046e-05    -6.96317581e-06 
   -3.09566053e-04     4.07569313e-05    -2.36029037e-05 
   -3.09181454e-04     4.01107737e-05    -3.97912078e-05 
   -3.05978159e-04     3.83026982e-05    -4.97908754e-05 
   -3.11096681e-04     3.82073970e-05    -7.04939132e-05 
   -3.11760961e-04     2.36510353e-05     7.07550590e-05 
   -3.06458399e-04     2.29836968e-05     5.18097791e-05 
   -3.09524675e-04     2.38171297e-05     4.04732458e-05 
   -3.08543928e-04     2.52375597e-05     2.51344414e-05 
   -3.08795151e-04     2.50620077e-05     7.37438767e-06 
   -3.08795306e-04     2.50618421e-05    -7.37821466e-06 
   -3.08543748e-04     2.52474590e-05    -2.51481481e-05 
   -3.09525207e-04     2.38175183e-05    -4.04766849e-05 
   -3.06459272e-04     2.29832826e-05    -5.18137316e-05 
   -3.11761189e-04     2.36504547e-05    -7.07572415e-05 
   -3.12841842e-04     6.59858903e-06     7.20440482e-05 
   -3.07169568e-04     6.85932240e-06     5.26970021e-05 
   -3.09923856e-04     6.87618765e-06     4.10255815e-05 
   -3.08817725e-04     7.34574267e-06     2.49578732e-05 
   -3.08650176e-04     7.56654469e-06     7.58106790e-06 
   -3.08650089e-04     7.57616609e-06    -7.59363614e-06 
   -3.08817837e-04     7.34596860e-06    -2.49605952e-05 
   -3.09924113e-04     6.87595056e-06    -4.10297287e-05 
   -3.07169832e-04     6.86004374e-06    -5.27015002e-05 
   -3.12841398e-04     6.59750489e-06    -7.20472518e-05 
   -3.12841842e-04    -6.59858903e-06     7.20440482e-05 
   -3.07169568e-04    -6.85932240e-06     5.26970021e-05 
   -3.09923856e-04    -6.87618765e-06     4.10255815e-05 
   -3.08817725e-04    -7.34574267e-06     2.49578732e-05 
   -3.08650176e-04    -7.56654469e-06     7.58106790e-06 
   -3.08650089e-04    -7.57616609e-06    -7.59363614e-06 
   -3.08817837e-04    -7.34596860e-06    -2.49605952e-05 
   -3.09924113e-04    -6.87595056e-06    -4.10297287e-05 
   -3.07169832e-04    -6.86004374e-06    -5.27015002e-05 
   -3.12841398e-04    -6.59750489e-06    -7.20472518e-05 
   -3.11760961e-04    -2.36510353e-05     7.07550590e-05 
   -3.06458399e-04    -2.29836968e-05     5.18097791e-05 
   -3.09524675e-04    -2.38171297e-05     4.04732458e-05 
   -3.08543928e-04    -2.52375597e-05     2.51344414e-05 
   -3.08795151e-04    -2.50620077e-05     7.37438767e-06 
   -3.08795306e-04    -2.50618421e-05    -7.37821466e-06 
   -3.08543748e-04    -2.52474590e-05    -2.51481481e-05 
   -3.09525207e-04    -2.38175183e-05    -4.04766849e-05 
   -3.06459272e-04    -2.29832826e-05    -5.18137316e-05 
   -3.11761189e-04    -2.36504547e-05    -7.07572415e-05 
   -3.11095652e-04    -3.82107764e-05     7.04920637e-05 
   -3.05977031e-04    -3.83025995e-05     4.97884273e-05 
   -3.09181629e-04    -4.00998265e-05     3.97754334e-05 
   -3.09565424e-04    -4.07577708e-05     2.35979457e-05 
   -3.09910024e-04    -4.12039385e-05     6.95854671e-06 
   -3.09910327e-04    -4.12043046e-05    -6.96317581e-06 
   -3.09566053e-04    -4.07569313e-05    -2.36029037e-05 
   -3.09181454e-04    -4.01107737e-05    -3.97912078e-05 
   -3.05978159e-04    -3.83026982e-05    -4.97908754e-05 
   -3.11096681e-04    -3.82073970e-05    -7.04939132e-05 
   -3.06896964e-04    -5.00823465e-05     6.92945807e-05 
   -3.01901996e-04    -5.15510278e-05     5.12009091e-05 
   -3.06113847e-04    -5.04528467e-05     3.80492181e-05 
   -3.06572173e-04    -5.21091825e-05     2.27021556e-05 
   -3.07146371e-04    -5.29656444e-05     6.79942355e-06 
   -3.07146690e-04    -5.29656893e-05    -6.80361107e-06 
   -3.06573291e-04    -5.21090706e-05    -2.27060468e-05 
   -3.06115124e-04    -5.04519982e-05    -3.80539325e-05 
   -3.01901357e-04    -5.15622429e-05    -5.12159626e-05 
   -3.06899295e-04    -5.00816987e-05    -6.92941942e-05 
   -3.08955910e-04    -7.26399958e-05     6.71324324e-05 
   -3.08658018e-04    -6.97835638e-05     5.04081736e-05 
   -3.11999726e-04    -7.07386490e-05     3.88902733e-05 
   -3.12219809e-04    -7.08829355e-05     2.36192667e-05 
   -3.12742403e-04    -7.19739116e-05     7.06026833e-06 
   -3.12742859e-04    -7.19747989e-05    -7.06125204e-06 
   -3.12220561e-04    -7.08821371e-05    -2.36210095e-05 
   -3.12001276e-04    -7.07392051e-05    -3.88928909e-05 
   -3.08660083e-04    -6.97821748e-05    -5.04114590e-05 
   -3.08890168e-04    -7.26279679e-05    -6.71410709e-05 
   -2.36709599e-04     7.52591921e-05     7.53781300e-05 
   -2.38533196e-04     7.24524647e-05     6.02689076e-05 
   -2.40641044e-04     7.29832715e-05     4.22972024e-05 
   -2.40525919e-04     7.31994348e-05     2.56630815e-05 
   -2.41406915e-04     7.36672077e-05     7.98126793e-06 
   -2.41406800e-04     7.36675916e-05    -7.97937334e-06 
   -2.40526671e-04     7.31994327e-05    -2.56616558e-05 
   -2.40642598e-04     7.29839387e-05    -4.22958619e-05 
   -2.38533949e-04     7.24512184e-05    -6.02695193e-05 
   -2.36693396e-04     7.52549338e-05    -7.53747266e-05 
   -2.36489559e-04     6.09405720e-05     7.22925343e-05 
   -2.36826103e-04     6.14111415e-05     6.15790189e-05 
   -2.39023260e-04     5.97865255e-05     4.18997398e-05 
   -2.39333776e-04     6.10797399e-05     2.52112801e-05 
   -2.39898337e-04     6.15686587e-05     8.12399362e-06 
   -2.39898378e-04     6.15687546e-05    -8.12404445e-06 
   -2.39334453e-04     6.10797047e-05    -2.52109812e-05 
   -2.39022527e-04     5.97859205e-05    -4.19004902e-05 
   -2.36831978e-04     6.14068170e-05    -6.15768807e-05 
   -2.36490397e-04     6.09391287e-05    -7.22919406e-05 
   -2.39855059e-04     4.21319026e-05     7.29099505e-05 
   -2.38875250e-04     4.21003635e-05     5.96832980e-05 
   -2.41221303e-04     4.38069160e-05     4.37607847e-05 
   -2.40464484e-04     4.32303924e-05     2.58321739e-05 
   -2.40918284e-04     4.34387650e-05     8.01327127e-06 
   -2.40918460e-04     4.34389148e-05    -8.01425399e-06 
   -2.40464172e-04     4.32300335e-05    -2.58339266e-05 
   -2.41222940e-04     4.38069128e-05    -4.37628006e-05 
   -2.38874840e-04     4.20992581e-05    -5.96843436e-05 
   -2.39857411e-04     4.21289021e-05    -7.29114031e-05 
   -2.39951290e-04     2.58773146e-05     7.31605534e-05 
   -2.39114130e-04     2.52800387e-05     6.11742112e-05 
   -2.40414449e-04     2.59547616e-05     4.31680505e-05 
   -2.39501275e-04     2.68777235e-05     2.68860895e-05 
   -2.39517397e-04     2.62683681e-05     8.52913181e-06 
   -2.39517141e-04     2.62684259e-05    -8.53011727e-06 
   -2.39502066e-04     2.68789785e-05    -2.68882241e-05 
   -2.40414165e-04     2.59550355e-05    -4.31693565e-05 
   -2.39114889e-04     2.52787780e-05    -6.11764400e-05 
   -2.39952088e-04     2.58765381e-05    -7.31624164e-05 
   -2.41414122e-04     8.02182362e-06     7.36724626e-05 
   -2.39840851e-04     8.21766930e-06     6.15768620e-05 
   -2.40933634e-04     7.97269449e-06     4.34545445e-05 
   -2.39509871e-04     8.55947504e-06     2.63324755e-05 
   -2.39702243e-04     8.54140749e-06     8.60439573e-06 
   -2.39702692e-04     8.54286956e-06    -8.60656184e-06 
   -2.39509687e-04     8.55981059e-06    -2.63330983e-05 
   -2.40933739e-04     7.97245069e-06    -4.34562724e-05 
   -2.39841045e-04     8.21756510e-06    -6.15793959e-05 
   -2.41414453e-04     8.02138025e-06    -7.36748340e-05 
   -2.41414122e-04    -8.02182362e-06     7.36724626e-05 
   -2.39840851e-04    -8.21766930e-06     6.15768620e-05 
   -2.40933634e-04    -7.97269449e-06     4.34545445e-05 
   -2.39509871e-04    -8.55947504e-06     2.63324755e-05 
   -2.39702243e-04    -8.54140749e-06     8.60439573e-06 
   -2.39702692e-04    -8.54286956e-06    -8.60656184e-06 
   -2.39509687e-04    -8.55981059e-06    -2.63330983e-05 
   -2.40933739e-04    -7.97245069e-06    -4.34562724e-05 
   -2.39841045e-04    -8.21756510e-06    -6.15793959e-05 
   -2.41414453e-04    -8.02138025e-06    -7.36748340e-05 
   -2.39951290e-04    -2.58773146e-05     7.31605534e-05 
   -2.39114130e-04    -2.52800387e-05     6.11742112e-05 
   -2.40414449e-04    -2.59547616e-05     4.31680505e-05 
   -2.39501275e-04    -2.68777235e-05     2.68860895e-05 
   -2.39517397e-04    -2.62683681e-05     8.52913181e-06 
   -2.39517141e-04    -2.62684259e-05    -8.53011727e-06 
   -2.39502066e-04    -2.68789785e-05    -2.68882241e-05 
   -2.40414165e-04    -2.59550355e-05    -4.31693565e-05 
   -2.39114889e-04    -2.52787780e-05    -6.11764400e-05 
   -2.39952088e-04    -2.58765381e-05    -7.31624164e-05 
   -2.39855059e-04    -4.21319026e-05     7.29099505e-05 
   -2.38875250e-04    -4.21003635e-05     5.96832980e-05 
   -2.41221303e-04    -4.38069160e-05     4.37607847e-05 
   -2.40464484e-04    -4.32303924e-05     2.58321739e-05 
   -2.40918284e-04    -4.34387650e-05     8.01327127e-06 
   -2.40918460e-04    -4.34389148e-05    -8.01425399e-06 
   -2.40464172e-04    -4.32300335e-05    -2.58339266e-05 
   -2.41222940e-04    -4.38069128e-05    -4.37628006e-05 
   -2.38874840e-04    -4.20992581e-05    -5.96843436e-05 
   -2.39857411e-04    -4.21289021e-05    -7.29114031e-05 
   -2.36489559e-04    -6.09405720e-05     7.22925343e-05 
   -2.36826103e-04    -6.14111415e-05     6.15790189e-05 
   -2.39023260e-04    -5.97865255e-05     4.18997398e-05 
   -2.39333776e-04    -6.10797399e-05     2.52112801e-05 
   -2.39898337e-04    -6.15686587e-05     8.12399362e-06 
   -2.39898378e-04    -6.15687546e-05    -8.12404445e-06 
   -2.39334453e-04    -6.10797047e-05    -2.52109812e-05 
   -2.39022527e-04    -5.97859205e-05    -4.19004902e-05 
   -2.36831978e-04    -6.14068170e-05    -6.15768807e-05 
   -2.36490397e-04    -6.09391287e-05    -7.22919406e-05 
   -2.36709599e-04    -7.52591921e-05     7.53781300e-05 
   -2.38533196e-04    -7.24524647e-05     6.02689076e-05 
   -2.40641044e-04    -7.29832715e-05     4.22972024e-05 
   -2.40525919e-04    -7.31994348e-05     2.56630815e-05 
   -2.41406915e-04    -7.36672077e-05     7.98126793e-06 
   -2.41406800e-04    -7.36675916e-05    -7.97937334e-06 
   -2.40526671e-04    -7.31994327e-05    -2.56616558e-05 
   -2.40642598e-04    -7.29839387e-05    -4.22958619e-05 
   -2.38533949e-04    -7.24512184e-05    -6.02695193e-05 
   -2.36693396e-04    -7.52549338e-05    -7.53747266e-05 
   -1.68166703e-04     8.33478524e-05     8.35836204e-05 
   -1.70649904e-04     8.17078232e-05     6.36092901e-05 
   -1.70711055e-04     8.22341266e-05     4.57467423e-05 
   -1.70517433e-04     8.27041137e-05     2.63609704e-05 
   -1.71500168e-04     8.29811046e-05     9.04122031e-06 
   -1.71500321e-04     8.29815019e-05    -9.04028554e-06 
   -1.70517390e-04     8.27041209e-05    -2.63604680e-05 
   -1.70710982e-04     8.22334522e-05    -4.57479728e-05 
   -1.70649558e-04     8.17072163e-05    -6.36103306e-05 
   -1.68155492e-04     8.33467658e-05    -8.35835572e-05 
   -1.69865173e-04     6.38153713e-05     8.16445025e-05 
   -1.71965876e-04     6.62480068e-05     6.61779881e-05 
   -1.72487353e-04     6.45283621e-05     4.61751897e-05 
   -1.72409912e-04     6.56916547e-05     2.58221526e-05 
   -1.73700350e-04     6.62377283e-05     9.23217319e-06 
   -1.73700081e-04     6.62377927e-05    -9.23241362e-06 
   -1.72409002e-04     6.56915240e-05    -2.58229548e-05 
   -1.72488165e-04     6.45276239e-05    -4.61749183e-05 
   -1.71970202e-04     6.62462061e-05    -6.61774677e-05 
   -1.69864670e-04     6.38149721e-05    -8.16445679e-05 
   -1.69795422e-04     4.60847257e-05     8.22266107e-05 
   -1.72360084e-04     4.61839026e-05     6.44193955e-05 
   -1.72230922e-04     4.85477605e-05     4.86071867e-05 
   -1.71636291e-04     4.71156961e-05     2.64461539e-05 
   -1.72376880e-04     4.74156387e-05     8.99082240e-06 
   -1.72376286e-04     4.74158792e-05    -8.99194724e-06 
   -1.71636091e-04     4.71153695e-05    -2.64468055e-05 
   -1.72234005e-04     4.85469155e-05    -4.86079714e-05 
   -1.72361171e-04     4.61821281e-05    -6.44200155e-05 
   -1.69795603e-04     4.60839304e-05    -8.22265255e-05 
   -1.70058534e-04     2.63144616e-05     8.27209126e-05 
   -1.72321502e-04     2.58366357e-05     6.56561994e-05 
   -1.71503387e-04     2.65710122e-05     4.71205863e-05 
   -1.70620404e-04     2.75123493e-05     2.75032599e-05 
   -1.71278813e-04     2.64460311e-05     9.35570915e-06 
   -1.71278830e-04     2.64456198e-05    -9.35658453e-06 
   -1.70620945e-04     2.75133824e-05    -2.75056805e-05 
   -1.71503868e-04     2.65701152e-05    -4.71218666e-05 
   -1.72321604e-04     2.58360715e-05    -6.56578501e-05 
   -1.70059404e-04     2.63132693e-05    -8.27224134e-05 
   -1.71380830e-04     8.95028056e-06     8.29800093e-05 
   -1.73617578e-04     9.18135202e-06     6.61747789e-05 
   -1.72330986e-04     8.99029323e-06     4.74966325e-05 
   -1.71270966e-04     9.33575165e-06     2.65400268e-05 
   -1.72016005e-04     9.48159953e-06     9.53713738e-06 
   -1.72016062e-04     9.48333230e-06    -9.53908674e-06 
   -1.71270965e-04     9.33507632e-06    -2.65409988e-05 
   -1.72331034e-04     8.99030555e-06    -4.74984922e-05 
   -1.73618299e-04     9.18108980e-06    -6.61771677e-05 
   -1.71381909e-04     8.94945026e-06    -8.29821394e-05 
   -1.71380830e-04    -8.95028056e-06     8.29800093e-05 
   -1.73617578e-04    -9.18135202e-06     6.61747789e-05 
   -1.72330986e-04    -8.99029323e-06     4.74966325e-05 
   -1.71270966e-04    -9.33575165e-06     2.65400268e-05 
   -1.72016005e-04    -9.48159953e-06     9.53713738e-06 
   -1.72016062e-04    -9.48333230e-06    -9.53908674e-06 
   -1.71270965e-04    -9.33507632e-06    -2.65409988e-05 
   -1.72331034e-04    -8.99030555e-06    -4.74984922e-05 
   -1.73618299e-04    -9.18108980e-06    -6.61771677e-05 
   -1.71381909e-04    -8.94945026e-06    -8.29821394e-05 
   -1.70058534e-04    -2.63144616e-05     8.27209126e-05 
   -1.72321502e-04    -2.58366357e-05     6.56561994e-05 
   -1.71503387e-04    -2.65710122e-05     4.71205863e-05 
   -1.70620404e-04    -2.75123493e-05     2.75032599e-05 
   -1.71278813e-04    -2.64460311e-05     9.35570915e-06 
   -1.71278830e-04    -2.64456198e-05    -9.35658453e-06 
   -1.70620945e-04    -2.75133824e-05    -2.75056805e-05 
   -1.71503868e-04    -2.65701152e-05    -4.71218666e-05 
   -1.72321604e-04    -2.58360715e-05    -6.56578501e-05 
   -1.70059404e-04    -2.63132693e-05    -8.27224134e-05 
   -1.69795422e-04    -4.60847257e-05     8.22266107e-05 
   -1.72360084e-04    -4.61839026e-05     6.44193955e-05 
   -1.72230922e-04    -4.85477605e-05     4.86071867e-05 
   -1.71636291e-04    -4.71156961e-05     2.64461539e-05 
   -1.72376880e-04    -4.74156387e-05     8.99082240e-06 
   -1.72376286e-04    -4.74158792e-05    -8.99194724e-06 
   -1.71636091e-04    -4.71153695e-05    -2.64468055e-05 
   -1.72234005e-04    -4.85469155e-05    -4.86079714e-05 
   -1.72361171e-04    -4.61821281e-05    -6.44200155e-05 
   -1.69795603e-04    -4.60839304e-05    -8.22265255e-05 
   -1.69865173e-04    -6.38153713e-05     8.16445025e-05 
   -1.71965876e-04    -6.62480068e-05     6.61779881e-05 
   -1.72487353e-04    -6.45283621e-05     4.61751897e-05 
   -1.72409912e-04    -6.56916547e-05     2.58221526e-05 
   -1.73700350e-04    -6.62377283e-05     9.23217319e-06 
   -1.73700081e-04    -6.62377927e-05    -9.23241362e-06 
   -1.72409002e-04    -6.56915240e-05    -2.58229548e-05 
   -1.72488165e-04    -6.45276239e-05    -4.61749183e-05 
   -1.71970202e-04    -6.62462061e-05    -6.61774677e-05 
   -1.69864670e-04    -6.38149721e-05    -8.16445679e-05 
   -1.68166703e-04    -8.33478524e-05     8.35836204e-05 
   -1.70649904e-04    -8.17078232e-05     6.36092901e-05 
   -1.70711055e-04    -8.22341266e-05     4.57467423e-05 
   -1.70517433e-04    -8.27041137e-05     2.63609704e-05 
   -1.71500168e-04    -8.29811046e-05     9.04122031e-06 
   -1.71500321e-04    -8.29815019e-05    -9.04028554e-06 
   -1.70517390e-04    -8.27041209e-05    -2.63604680e-05 
   -1.70710982e-04    -8.22334522e-05    -4.57479728e-05 
   -1.70649558e-04    -8.17072163e-05    -6.36103306e-05 
   -1.68155492e-04    -8.33467658e-05    -8.35835572e-05 
   -1.00934877e-04     8.90022605e-05     8.86885286e-05 
   -1.04038008e-04     8.73749265e-05     6.77153140e-05 
   -1.02508164e-04     8.97258412e-05     4.83195219e-05 
   -1.03418723e-04     9.08995963e-05     2.85301495e-05 
   -1.03364263e-04     9.13806470e-05     9.17028369e-06 
   -1.03364167e-04     9.13807488e-05    -9.17071180e-06 
   -1.03417772e-04     9.08993859e-05    -2.85309060e-05 
   -1.02507388e-04     8.97256099e-05    -4.83207715e-05 
   -1.04037492e-04     8.73746665e-05    -6.77168880e-05 
   -1.00925053e-04     8.90021731e-05    -8.86893520e-05 
   -1.03630159e-04     6.72031830e-05     8.73058198e-05 
   -1.06093121e-04     6.99081456e-05     6.99533611e-05 
   -1.05317391e-04     6.91292889e-05     4.90154908e-05 
   -1.06020707e-04     7.02559527e-05     2.82589462e-05 
   -1.06153171e-04     7.06576338e-05     9.51434893e-06 
   -1.06152628e-04     7.06577926e-05    -9.51553335e-06 
   -1.06020667e-04     7.02557583e-05    -2.82590980e-05 
   -1.05317700e-04     6.91290626e-05    -4.90157190e-05 
   -1.06096566e-04     6.99074735e-05    -6.99538824e-05 
   -1.03629086e-04     6.72036135e-05    -8.73061537e-05 
   -1.01871257e-04     4.83463020e-05     8.97136617e-05 
   -1.05244558e-04     4.89939173e-05     6.91490311e-05 
   -1.03278155e-04     5.17724482e-05     5.17813873e-05 
   -1.03619924e-04     5.01590131e-05     2.89182467e-05 
   -1.03413256e-04     5.05636188e-05     9.12895008e-06 
   -1.03413179e-04     5.05633620e-05    -9.13008862e-06 
   -1.03619836e-04     5.01589194e-05    -2.89189063e-05 
   -1.03280580e-04     5.17723921e-05    -5.17823507e-05 
   -1.05244921e-04     4.89931512e-05    -6.91500184e-05 
   -1.01870074e-04     4.83466480e-05    -8.97139633e-05 
   -1.03050389e-04     2.86213589e-05     9.09235489e-05 
   -1.05928397e-04     2.80978671e-05     7.01862326e-05 
   -1.03570107e-04     2.89701078e-05     5.01357003e-05 
   -1.03685904e-04     3.00306072e-05     3.00897812e-05 
   -1.03688673e-04     2.87959673e-05     9.57447930e-06 
   -1.03688618e-04     2.87961723e-05    -9.57521362e-06 
   -1.03687501e-04     3.00306402e-05    -3.00910588e-05 
   -1.03570692e-04     2.89696766e-05    -5.01367503e-05 
   -1.05929111e-04     2.80970545e-05    -7.01875337e-05 
   -1.03050457e-04     2.86213301e-05    -9.09246669e-05 
   -1.03251077e-04     9.08209885e-06     9.13849475e-05 
   -1.06110278e-04     9.50192266e-06     7.06237621e-05 
   -1.03380173e-04     9.13190223e-06     5.06527181e-05 